<?xml version="1.0" encoding="ISO-8859-1"?>
<modeling>
 <generator>
  <i name="program" type="string">vasp </i>
  <i name="version" type="string">6.3.0  </i>
  <i name="subversion" type="string">20Jan22 (build Feb 10 2022 15:15:41) complex                          parallel </i>
  <i name="platform" type="string">LinuxIFC </i>
  <i name="date" type="string">2023 10 04 </i>
  <i name="time" type="string">16:12:39 </i>
 </generator>
 <incar>
  <i name="EDIFF">      0.00010000</i>
  <i name="ENCUT">    400.00000000</i>
  <i type="int" name="ISMEAR">     0</i>
  <i name="SIGMA">      0.05000000</i>
 </incar>
 <primitive_cell>
  <structure name="primitive_cell" >
   <crystal>
    <varray name="basis" >
     <v>       7.91528981       0.00000000       0.00000000 </v>
     <v>       0.00000000       7.91528981       0.00000000 </v>
     <v>       0.00000000       0.00000000       7.91528981 </v>
    </varray>
    <i name="volume">    495.90725549 </i>
    <varray name="rec_basis" >
     <v>       0.12633776       0.00000000       0.00000000 </v>
     <v>       0.00000000       0.12633776       0.00000000 </v>
     <v>       0.00000000       0.00000000       0.12633776 </v>
    </varray>
   </crystal>
   <varray name="positions" >
    <v>       0.00126338       0.00000000       0.00000000 </v>
    <v>       0.50000000       0.00000000       0.00000000 </v>
    <v>       0.00000000       0.50000000       0.00000000 </v>
    <v>       0.50000000       0.50000000       0.00000000 </v>
    <v>       0.00000000       0.00000000       0.50000000 </v>
    <v>       0.50000000       0.00000000       0.50000000 </v>
    <v>       0.00000000       0.50000000       0.50000000 </v>
    <v>       0.50000000       0.50000000       0.50000000 </v>
    <v>       0.00000000       0.25000000       0.25000000 </v>
    <v>       0.50000000       0.25000000       0.25000000 </v>
    <v>       0.00000000       0.75000000       0.25000000 </v>
    <v>       0.50000000       0.75000000       0.25000000 </v>
    <v>       0.00000000       0.25000000       0.75000000 </v>
    <v>       0.50000000       0.25000000       0.75000000 </v>
    <v>       0.00000000       0.75000000       0.75000000 </v>
    <v>       0.50000000       0.75000000       0.75000000 </v>
    <v>       0.25000000       0.00000000       0.25000000 </v>
    <v>       0.75000000       0.00000000       0.25000000 </v>
    <v>       0.25000000       0.50000000       0.25000000 </v>
    <v>       0.75000000       0.50000000       0.25000000 </v>
    <v>       0.25000000       0.00000000       0.75000000 </v>
    <v>       0.75000000       0.00000000       0.75000000 </v>
    <v>       0.25000000       0.50000000       0.75000000 </v>
    <v>       0.75000000       0.50000000       0.75000000 </v>
    <v>       0.25000000       0.25000000       0.00000000 </v>
    <v>       0.75000000       0.25000000       0.00000000 </v>
    <v>       0.25000000       0.75000000       0.00000000 </v>
    <v>       0.75000000       0.75000000       0.00000000 </v>
    <v>       0.25000000       0.25000000       0.50000000 </v>
    <v>       0.75000000       0.25000000       0.50000000 </v>
    <v>       0.25000000       0.75000000       0.50000000 </v>
    <v>       0.75000000       0.75000000       0.50000000 </v>
   </varray>
  </structure>
  <varray name="primitive_index" >
   <v type="int" >        1 </v>
   <v type="int" >        2 </v>
   <v type="int" >        3 </v>
   <v type="int" >        4 </v>
   <v type="int" >        5 </v>
   <v type="int" >        6 </v>
   <v type="int" >        7 </v>
   <v type="int" >        8 </v>
   <v type="int" >        9 </v>
   <v type="int" >       10 </v>
   <v type="int" >       11 </v>
   <v type="int" >       12 </v>
   <v type="int" >       13 </v>
   <v type="int" >       14 </v>
   <v type="int" >       15 </v>
   <v type="int" >       16 </v>
   <v type="int" >       17 </v>
   <v type="int" >       18 </v>
   <v type="int" >       19 </v>
   <v type="int" >       20 </v>
   <v type="int" >       21 </v>
   <v type="int" >       22 </v>
   <v type="int" >       23 </v>
   <v type="int" >       24 </v>
   <v type="int" >       25 </v>
   <v type="int" >       26 </v>
   <v type="int" >       27 </v>
   <v type="int" >       28 </v>
   <v type="int" >       29 </v>
   <v type="int" >       30 </v>
   <v type="int" >       31 </v>
   <v type="int" >       32 </v>
  </varray>
 </primitive_cell>
 <kpoints>
  <generation param="Gamma">
   <v type="int" name="divisions">       8        8        8 </v>
   <v name="usershift">      0.00000000       0.00000000       0.00000000 </v>
   <v name="genvec1">      0.12500000       0.00000000       0.00000000 </v>
   <v name="genvec2">      0.00000000       0.12500000       0.00000000 </v>
   <v name="genvec3">      0.00000000       0.00000000       0.12500000 </v>
   <v name="shift">      0.00000000       0.00000000       0.00000000 </v>
  </generation>
  <varray name="kpointlist" >
   <v>       0.00000000       0.00000000       0.00000000 </v>
   <v>       0.12500000       0.00000000       0.00000000 </v>
   <v>       0.00000000       0.12500000       0.00000000 </v>
   <v>       0.25000000       0.00000000       0.00000000 </v>
   <v>       0.00000000       0.25000000       0.00000000 </v>
   <v>       0.37500000       0.00000000       0.00000000 </v>
   <v>       0.00000000       0.37500000       0.00000000 </v>
   <v>       0.50000000       0.00000000       0.00000000 </v>
   <v>       0.00000000       0.50000000       0.00000000 </v>
   <v>       0.12500000       0.12500000       0.00000000 </v>
   <v>       0.00000000       0.12500000       0.12500000 </v>
   <v>       0.25000000       0.12500000       0.00000000 </v>
   <v>       0.00000000       0.25000000       0.12500000 </v>
   <v>       0.12500000       0.00000000       0.25000000 </v>
   <v>       0.37500000       0.12500000       0.00000000 </v>
   <v>       0.00000000       0.37500000       0.12500000 </v>
   <v>       0.12500000       0.00000000       0.37500000 </v>
   <v>       0.50000000       0.12500000       0.00000000 </v>
   <v>       0.00000000       0.50000000       0.12500000 </v>
   <v>       0.12500000       0.00000000       0.50000000 </v>
   <v>       0.25000000       0.25000000       0.00000000 </v>
   <v>       0.00000000       0.25000000       0.25000000 </v>
   <v>       0.37500000       0.25000000       0.00000000 </v>
   <v>       0.00000000       0.37500000       0.25000000 </v>
   <v>       0.25000000       0.00000000       0.37500000 </v>
   <v>       0.50000000       0.25000000       0.00000000 </v>
   <v>       0.00000000       0.50000000       0.25000000 </v>
   <v>       0.25000000       0.00000000       0.50000000 </v>
   <v>       0.37500000       0.37500000       0.00000000 </v>
   <v>       0.00000000       0.37500000       0.37500000 </v>
   <v>       0.50000000       0.37500000       0.00000000 </v>
   <v>       0.00000000       0.50000000       0.37500000 </v>
   <v>       0.37500000       0.00000000       0.50000000 </v>
   <v>       0.50000000       0.50000000       0.00000000 </v>
   <v>       0.00000000       0.50000000       0.50000000 </v>
   <v>       0.12500000       0.12500000       0.12500000 </v>
   <v>       0.25000000       0.12500000       0.12500000 </v>
   <v>       0.12500000       0.25000000       0.12500000 </v>
   <v>       0.37500000       0.12500000       0.12500000 </v>
   <v>       0.12500000       0.37500000       0.12500000 </v>
   <v>       0.50000000       0.12500000       0.12500000 </v>
   <v>       0.12500000       0.50000000       0.12500000 </v>
   <v>       0.25000000       0.25000000       0.12500000 </v>
   <v>       0.12500000       0.25000000       0.25000000 </v>
   <v>       0.37500000       0.25000000       0.12500000 </v>
   <v>       0.12500000       0.37500000       0.25000000 </v>
   <v>       0.25000000       0.12500000       0.37500000 </v>
   <v>       0.50000000       0.25000000       0.12500000 </v>
   <v>       0.12500000       0.50000000       0.25000000 </v>
   <v>       0.25000000       0.12500000       0.50000000 </v>
   <v>       0.37500000       0.37500000       0.12500000 </v>
   <v>       0.12500000       0.37500000       0.37500000 </v>
   <v>       0.50000000       0.37500000       0.12500000 </v>
   <v>       0.12500000       0.50000000       0.37500000 </v>
   <v>       0.37500000       0.12500000       0.50000000 </v>
   <v>       0.50000000       0.50000000       0.12500000 </v>
   <v>       0.12500000       0.50000000       0.50000000 </v>
   <v>       0.25000000       0.25000000       0.25000000 </v>
   <v>       0.37500000       0.25000000       0.25000000 </v>
   <v>       0.25000000       0.37500000       0.25000000 </v>
   <v>       0.50000000       0.25000000       0.25000000 </v>
   <v>       0.25000000       0.50000000       0.25000000 </v>
   <v>       0.37500000       0.37500000       0.25000000 </v>
   <v>       0.25000000       0.37500000       0.37500000 </v>
   <v>       0.50000000       0.37500000       0.25000000 </v>
   <v>       0.25000000       0.50000000       0.37500000 </v>
   <v>       0.37500000       0.25000000       0.50000000 </v>
   <v>       0.50000000       0.50000000       0.25000000 </v>
   <v>       0.25000000       0.50000000       0.50000000 </v>
   <v>       0.37500000       0.37500000       0.37500000 </v>
   <v>       0.50000000       0.37500000       0.37500000 </v>
   <v>       0.37500000       0.50000000       0.37500000 </v>
   <v>       0.50000000       0.50000000       0.37500000 </v>
   <v>       0.37500000       0.50000000       0.50000000 </v>
   <v>       0.50000000       0.50000000       0.50000000 </v>
  </varray>
  <varray name="weights" >
   <v>       0.00195312 </v>
   <v>       0.00390625 </v>
   <v>       0.00781250 </v>
   <v>       0.00390625 </v>
   <v>       0.00781250 </v>
   <v>       0.00390625 </v>
   <v>       0.00781250 </v>
   <v>       0.00195312 </v>
   <v>       0.00390625 </v>
   <v>       0.01562500 </v>
   <v>       0.00781250 </v>
   <v>       0.01562500 </v>
   <v>       0.01562500 </v>
   <v>       0.01562500 </v>
   <v>       0.01562500 </v>
   <v>       0.01562500 </v>
   <v>       0.01562500 </v>
   <v>       0.00781250 </v>
   <v>       0.00781250 </v>
   <v>       0.00781250 </v>
   <v>       0.01562500 </v>
   <v>       0.00781250 </v>
   <v>       0.01562500 </v>
   <v>       0.01562500 </v>
   <v>       0.01562500 </v>
   <v>       0.00781250 </v>
   <v>       0.00781250 </v>
   <v>       0.00781250 </v>
   <v>       0.01562500 </v>
   <v>       0.00781250 </v>
   <v>       0.00781250 </v>
   <v>       0.00781250 </v>
   <v>       0.00781250 </v>
   <v>       0.00390625 </v>
   <v>       0.00195312 </v>
   <v>       0.01562500 </v>
   <v>       0.01562500 </v>
   <v>       0.03125000 </v>
   <v>       0.01562500 </v>
   <v>       0.03125000 </v>
   <v>       0.00781250 </v>
   <v>       0.01562500 </v>
   <v>       0.03125000 </v>
   <v>       0.01562500 </v>
   <v>       0.03125000 </v>
   <v>       0.03125000 </v>
   <v>       0.03125000 </v>
   <v>       0.01562500 </v>
   <v>       0.01562500 </v>
   <v>       0.01562500 </v>
   <v>       0.03125000 </v>
   <v>       0.01562500 </v>
   <v>       0.01562500 </v>
   <v>       0.01562500 </v>
   <v>       0.01562500 </v>
   <v>       0.00781250 </v>
   <v>       0.00390625 </v>
   <v>       0.01562500 </v>
   <v>       0.01562500 </v>
   <v>       0.03125000 </v>
   <v>       0.00781250 </v>
   <v>       0.01562500 </v>
   <v>       0.03125000 </v>
   <v>       0.01562500 </v>
   <v>       0.01562500 </v>
   <v>       0.01562500 </v>
   <v>       0.01562500 </v>
   <v>       0.00781250 </v>
   <v>       0.00390625 </v>
   <v>       0.01562500 </v>
   <v>       0.00781250 </v>
   <v>       0.01562500 </v>
   <v>       0.00781250 </v>
   <v>       0.00390625 </v>
   <v>       0.00195312 </v>
  </varray>
 </kpoints>
 <parameters>
  <separator name="general" >
   <i type="string" name="SYSTEM">unknown system</i>
   <i type="logical" name="LCOMPAT"> F  </i>
  </separator>
  <separator name="electronic" >
   <i type="string" name="PREC">normal</i>
   <i name="ENMAX">    400.00000000</i>
   <i name="ENAUG">    291.05200000</i>
   <i name="EDIFF">      0.00010000</i>
   <i type="int" name="IALGO">    38</i>
   <i type="int" name="IWAVPR">    10</i>
   <i type="int" name="NBANDS">    72</i>
   <i type="int" name="NBANDSLOW">    -1</i>
   <i type="int" name="NBANDSHIGH">    -1</i>
   <i name="NELECT">     96.00000000</i>
   <i type="int" name="TURBO">     0</i>
   <i type="int" name="IRESTART">     0</i>
   <i type="int" name="NREBOOT">     0</i>
   <i type="int" name="NMIN">     0</i>
   <i name="EREF">      0.00000000</i>
   <separator name="electronic smearing" >
    <i type="int" name="ISMEAR">     0</i>
    <i name="SIGMA">      0.05000000</i>
    <i name="KSPACING">      0.50000000</i>
    <i type="logical" name="KGAMMA"> T  </i>
    <i type="logical" name="KBLOWUP"> T  </i>
   </separator>
   <separator name="electronic projectors" >
    <i type="logical" name="LREAL"> F  </i>
    <v name="ROPT">      0.00000000</v>
    <i type="int" name="LMAXPAW">  -100</i>
    <i type="int" name="LMAXMIX">     2</i>
    <i type="logical" name="NLSPLINE"> F  </i>
   </separator>
   <separator name="electronic startup" >
    <i type="int" name="ISTART">     0</i>
    <i type="int" name="ICHARG">     2</i>
    <i type="int" name="INIWAV">     1</i>
   </separator>
   <separator name="electronic spin" >
    <i type="int" name="ISPIN">     1</i>
    <i type="logical" name="LNONCOLLINEAR"> F  </i>
    <v name="MAGMOM">      1.00000000      1.00000000      1.00000000      1.00000000      1.00000000      1.00000000      1.00000000      1.00000000      1.00000000      1.00000000      1.00000000      1.00000000      1.00000000      1.00000000      1.00000000      1.00000000      1.00000000      1.00000000      1.00000000      1.00000000
      1.00000000      1.00000000      1.00000000      1.00000000      1.00000000      1.00000000      1.00000000      1.00000000      1.00000000      1.00000000      1.00000000      1.00000000</v>
    <i name="NUPDOWN">     -1.00000000</i>
    <i type="logical" name="LSORBIT"> F  </i>
    <v name="SAXIS">      0.00000000      0.00000000      1.00000000</v>
    <i type="logical" name="LSPIRAL"> F  </i>
    <v name="QSPIRAL">      0.00000000      0.00000000      0.00000000</v>
    <i type="logical" name="LZEROZ"> F  </i>
   </separator>
   <separator name="electronic exchange-correlation" >
    <i type="logical" name="LASPH"> F  </i>
    <i type="logical" name="LMETAGGA"> F  </i>
   </separator>
   <separator name="electronic convergence" >
    <i type="int" name="NELM">    60</i>
    <i type="int" name="NELMDL">    -5</i>
    <i type="int" name="NELMIN">     2</i>
    <i name="ENINI">    400.00000000</i>
    <separator name="electronic convergence detail" >
     <i type="logical" name="LDIAG"> T  </i>
     <i type="logical" name="LSUBROT"> F  </i>
     <i name="WEIMIN">      0.00000000</i>
     <i name="EBREAK">      0.00000035</i>
     <i name="DEPER">      0.30000000</i>
     <i type="int" name="NRMM">     4</i>
     <i name="TIME">      0.40000000</i>
    </separator>
   </separator>
   <separator name="electronic mixer" >
    <i name="AMIX">      0.40000000</i>
    <i name="BMIX">      1.00000000</i>
    <i name="AMIN">      0.10000000</i>
    <i name="AMIX_MAG">      1.60000000</i>
    <i name="BMIX_MAG">      1.00000000</i>
    <separator name="electronic mixer details" >
     <i type="int" name="IMIX">     4</i>
     <i type="logical" name="MIXFIRST"> F  </i>
     <i type="int" name="MAXMIX">   -45</i>
     <i name="WC">    100.00000000</i>
     <i type="int" name="INIMIX">     1</i>
     <i type="int" name="MIXPRE">     1</i>
     <i type="int" name="MREMOVE">     5</i>
    </separator>
   </separator>
   <separator name="electronic dipolcorrection" >
    <i type="logical" name="LDIPOL"> F  </i>
    <i type="logical" name="LMONO"> F  </i>
    <i type="int" name="IDIPOL">     0</i>
    <i name="EPSILON">      1.00000000</i>
    <v name="DIPOL">   -100.00000000   -100.00000000   -100.00000000</v>
    <i name="EFIELD">      0.00000000</i>
   </separator>
  </separator>
  <separator name="grids" >
   <i type="int" name="NGX">    40</i>
   <i type="int" name="NGY">    40</i>
   <i type="int" name="NGZ">    40</i>
   <i type="int" name="NGXF">    80</i>
   <i type="int" name="NGYF">    80</i>
   <i type="int" name="NGZF">    80</i>
   <i type="logical" name="ADDGRID"> F  </i>
  </separator>
  <separator name="ionic" >
   <i type="int" name="NSW">     0</i>
   <i type="int" name="IBRION">    -1</i>
   <i type="int" name="MDALGO">     0</i>
   <i type="int" name="ISIF">     2</i>
   <i name="PSTRESS">      0.00000000</i>
   <i name="EDIFFG">      0.00100000</i>
   <i type="int" name="NFREE">     0</i>
   <i name="POTIM">      0.50000000</i>
   <i name="SMASS">     -3.00000000</i>
   <i name="SCALEE">      1.00000000</i>
  </separator>
  <separator name="ionic md" >
   <i name="TEBEG">      0.00010000</i>
   <i name="TEEND">      0.00010000</i>
   <i type="int" name="NBLOCK">     1</i>
   <i type="int" name="KBLOCK">     1</i>
   <i type="int" name="NPACO">   256</i>
   <i name="APACO">     10.00000000</i>
  </separator>
  <separator name="symmetry" >
   <i type="int" name="ISYM">     2</i>
   <i name="SYMPREC">      0.00001000</i>
  </separator>
  <separator name="dos" >
   <i type="int" name="LORBIT">     0</i>
   <v name="RWIGS">     -1.00000000</v>
   <i type="int" name="NEDOS">   301</i>
   <i name="EMIN">     10.00000000</i>
   <i name="EMAX">    -10.00000000</i>
   <i name="EFERMI">      0.00000000</i>
  </separator>
  <separator name="writing" >
   <i type="int" name="NWRITE">     2</i>
   <i type="logical" name="LWAVE"> T  </i>
   <i type="logical" name="LDOWNSAMPLE"> F  </i>
   <i type="logical" name="LCHARG"> T  </i>
   <i type="logical" name="LPARD"> F  </i>
   <i type="logical" name="LVTOT"> F  </i>
   <i type="logical" name="LVHAR"> F  </i>
   <i type="logical" name="LELF"> F  </i>
   <i type="logical" name="LOPTICS"> F  </i>
   <v name="STM">      0.00000000      0.00000000      0.00000000      0.00000000      0.00000000      0.00000000      0.00000000</v>
  </separator>
  <separator name="performance" >
   <i type="int" name="NPAR">    24</i>
   <i type="int" name="NSIM">     4</i>
   <i type="int" name="NBLK">    -1</i>
   <i type="logical" name="LPLANE"> T  </i>
   <i type="logical" name="LSCALAPACK"> T  </i>
   <i type="logical" name="LSCAAWARE"> F  </i>
   <i type="logical" name="LSCALU"> F  </i>
   <i type="logical" name="LASYNC"> F  </i>
   <i type="logical" name="LORBITALREAL"> F  </i>
  </separator>
  <separator name="miscellaneous" >
   <i type="int" name="IDIOT">     3</i>
   <i type="int" name="PHON_NSTRUCT">    -1</i>
   <i type="logical" name="LMUSIC"> F  </i>
   <v name="POMASS">     26.98100000</v>
   <v name="DARWINR">      0.00000000</v>
   <v name="DARWINV">      1.00000000</v>
   <i type="logical" name="LCORR"> T  </i>
  </separator>
  <i type="logical" name="GGA_COMPAT"> T  </i>
  <i type="logical" name="LBERRY"> F  </i>
  <i type="int" name="ICORELEVEL">     0</i>
  <i type="logical" name="LDAU"> F  </i>
  <i type="int" name="I_CONSTRAINED_M">     0</i>
  <separator name="electronic exchange-correlation" >
   <i type="string" name="GGA">--</i>
   <i type="int" name="VOSKOWN">     0</i>
   <i type="logical" name="LHFCALC"> F  </i>
   <i type="string" name="PRECFOCK"></i>
   <i type="logical" name="LSYMGRAD"> F  </i>
   <i type="logical" name="LHFONE"> F  </i>
   <i type="logical" name="LRHFCALC"> F  </i>
   <i type="logical" name="LTHOMAS"> F  </i>
   <i type="logical" name="LMODELHF"> F  </i>
   <i type="logical" name="LFOCKACE"> F  </i>
   <i name="ENCUT4O">     -1.00000000</i>
   <i type="int" name="EXXOEP">     0</i>
   <i type="int" name="FOURORBIT">     0</i>
   <i name="AEXX">      0.00000000</i>
   <i name="HFALPHA">      0.00000000</i>
   <i name="MCALPHA">      0.00000000</i>
   <i name="ALDAX">      1.00000000</i>
   <i name="AGGAX">      1.00000000</i>
   <i name="ALDAC">      1.00000000</i>
   <i name="AGGAC">      1.00000000</i>
   <i type="int" name="NKREDX">     1</i>
   <i type="int" name="NKREDY">     1</i>
   <i type="int" name="NKREDZ">     1</i>
   <i type="logical" name="SHIFTRED"> F  </i>
   <i type="logical" name="ODDONLY"> F  </i>
   <i type="logical" name="EVENONLY"> F  </i>
   <i type="int" name="LMAXFOCK">     0</i>
   <i type="int" name="NMAXFOCKAE">     0</i>
   <i type="logical" name="LFOCKAEDFT"> F  </i>
   <i name="HFSCREEN">      0.00000000</i>
   <i name="HFSCREENC">      0.00000000</i>
   <i type="int" name="NBANDSGWLOW">     0</i>
  </separator>
  <separator name="vdW DFT" >
   <i type="logical" name="LUSE_VDW"> F  </i>
   <i name="Zab_VDW">     -0.84910000</i>
   <i name="PARAM1">      0.12340000</i>
   <i name="PARAM2">      1.00000000</i>
   <i name="PARAM3">      0.00000000</i>
  </separator>
  <separator name="model GW" >
   <i type="int" name="MODEL_GW">     0</i>
   <i name="MODEL_EPS0">      9.29826104</i>
   <i name="MODEL_ALPHA">      1.00000000</i>
  </separator>
  <separator name="linear response parameters" >
   <i type="logical" name="LEPSILON"> F  </i>
   <i type="logical" name="LRPA"> F  </i>
   <i type="logical" name="LNABLA"> F  </i>
   <i type="logical" name="LVEL"> F  </i>
   <i name="CSHIFT">      0.10000000</i>
   <i name="OMEGAMAX">     -1.00000000</i>
   <i name="DEG_THRESHOLD">      0.00200000</i>
   <i name="RTIME">     -0.10000000</i>
   <i name="WPLASMAI">      0.00000000</i>
   <v name="DFIELD">      0.00000000      0.00000000      0.00000000</v>
   <v name="WPLASMA">      0.00000000      0.00000000      0.00000000      0.00000000      0.00000000      0.00000000      0.00000000      0.00000000      0.00000000</v>
  </separator>
  <separator name="orbital magnetization" >
   <i type="logical" name="NUCIND"> F  </i>
   <v name="MAGPOS">      0.00000000      0.00000000      0.00000000</v>
   <i type="logical" name="LNICSALL"> T  </i>
   <i type="logical" name="ORBITALMAG"> F  </i>
   <i type="logical" name="LMAGBLOCH"> F  </i>
   <i type="logical" name="LCHIMAG"> F  </i>
   <i type="logical" name="LGAUGE"> T  </i>
   <i type="int" name="MAGATOM">     0</i>
   <v name="MAGDIPOL">      0.00000000      0.00000000      0.00000000</v>
   <v name="AVECCONST">      0.00000000      0.00000000      0.00000000</v>
  </separator>
  <separator name="response functions" >
   <i type="logical" name="LFINITE_TEMPERATURE"> F  </i>
   <i type="logical" name="LADDER"> F  </i>
   <i type="logical" name="LRPAFORCE"> F  </i>
   <i type="logical" name="LFXC"> F  </i>
   <i type="logical" name="LHARTREE"> T  </i>
   <i type="int" name="IBSE">     0</i>
   <v type="int" name="KPOINT">    -1     0     0     0</v>
   <i type="logical" name="LTCTC"> F  </i>
   <i type="logical" name="LTCTE"> F  </i>
   <i type="logical" name="LTETE"> F  </i>
   <i type="logical" name="LTRIPLET"> F  </i>
   <i type="logical" name="LFXCEPS"> F  </i>
   <i type="logical" name="LFXHEG"> F  </i>
   <i type="int" name="NATURALO">     2</i>
   <i type="logical" name="LHOLEGF"> F  </i>
   <i type="logical" name="L2ORDER"> F  </i>
   <i type="logical" name="LDMP1"> F  </i>
   <i type="logical" name="LMP2LT"> F  </i>
   <i type="logical" name="LSMP2LT"> F  </i>
   <i type="logical" name="LGWLF"> F  </i>
   <i name="ENCUTGW">     -2.00000000</i>
   <i name="ENCUTGWSOFT">     -2.00000000</i>
   <i name="ENCUTLF">     -1.00000000</i>
   <i type="logical" name="LESF_SPLINES"> F  </i>
   <i type="int" name="LMAXMP2">    -1</i>
   <i name="SCISSOR">      0.00000000</i>
   <i type="int" name="NOMEGA">     0</i>
   <i type="int" name="NOMEGAR">     0</i>
   <i type="int" name="NBANDSGW">    -1</i>
   <i type="int" name="NBANDSO">    -1</i>
   <i type="int" name="NBANDSV">    -1</i>
   <i type="int" name="NELMGW">     1</i>
   <i type="int" name="NELMHF">     1</i>
   <i type="int" name="DIM">     3</i>
   <i type="int" name="IESPILON">     4</i>
   <i type="int" name="ANTIRES">     0</i>
   <i name="OMEGAMAX">    -30.00000000</i>
   <i name="OMEGAMIN">    -30.00000000</i>
   <i name="OMEGATL">   -200.00000000</i>
   <i type="int" name="OMEGAGRID">     0</i>
   <i name="CSHIFT">     -0.10000000</i>
   <i type="logical" name="LSELFENERGY"> F  </i>
   <i type="logical" name="LSPECTRAL"> F  </i>
   <i type="logical" name="LSPECTRALGW"> F  </i>
   <i type="logical" name="LSINGLES"> F  </i>
   <i type="logical" name="LFERMIGW"> F  </i>
   <i type="logical" name="ODDONLYGW"> F  </i>
   <i type="logical" name="EVENONLYGW"> F  </i>
   <i type="int" name="NKREDLFX">     1</i>
   <i type="int" name="NKREDLFY">     1</i>
   <i type="int" name="NKREDLFZ">     1</i>
   <i type="int" name="MAXMEM">  2800</i>
   <i type="int" name="TELESCOPE">     0</i>
   <i type="int" name="NTAUPAR">    -1</i>
   <i type="int" name="NOMEGAPAR">    -1</i>
   <i name="DAMP_NEWTON">      0.80000001</i>
   <i name="LAMBDA">      1.00000000</i>
  </separator>
  <separator name="External order field" >
   <i name="OFIELD_KAPPA">      0.00000000</i>
   <v name="OFIELD_K">      0.00000000      0.00000000      0.00000000</v>
   <i name="OFIELD_Q6_NEAR">      0.00000000</i>
   <i name="OFIELD_Q6_FAR">      0.00000000</i>
   <i name="OFIELD_A">      0.00000000</i>
  </separator>
  <separator name="optional k-points parameters" >
   <i type="int" name="KPOINTS_OPT_MODE">     1</i>
   <i type="logical" name="LKPOINTS_OPT"> F  </i>
  </separator>
 </parameters>
 <atominfo>
  <atoms>      32 </atoms>
  <types>       1 </types>
  <array name="atoms" >
   <dimension dim="1">ion</dimension>
   <field type="string">element</field>
   <field type="int">atomtype</field>
   <set>
    <rc><c>Al</c><c>   1</c></rc>
    <rc><c>Al</c><c>   1</c></rc>
    <rc><c>Al</c><c>   1</c></rc>
    <rc><c>Al</c><c>   1</c></rc>
    <rc><c>Al</c><c>   1</c></rc>
    <rc><c>Al</c><c>   1</c></rc>
    <rc><c>Al</c><c>   1</c></rc>
    <rc><c>Al</c><c>   1</c></rc>
    <rc><c>Al</c><c>   1</c></rc>
    <rc><c>Al</c><c>   1</c></rc>
    <rc><c>Al</c><c>   1</c></rc>
    <rc><c>Al</c><c>   1</c></rc>
    <rc><c>Al</c><c>   1</c></rc>
    <rc><c>Al</c><c>   1</c></rc>
    <rc><c>Al</c><c>   1</c></rc>
    <rc><c>Al</c><c>   1</c></rc>
    <rc><c>Al</c><c>   1</c></rc>
    <rc><c>Al</c><c>   1</c></rc>
    <rc><c>Al</c><c>   1</c></rc>
    <rc><c>Al</c><c>   1</c></rc>
    <rc><c>Al</c><c>   1</c></rc>
    <rc><c>Al</c><c>   1</c></rc>
    <rc><c>Al</c><c>   1</c></rc>
    <rc><c>Al</c><c>   1</c></rc>
    <rc><c>Al</c><c>   1</c></rc>
    <rc><c>Al</c><c>   1</c></rc>
    <rc><c>Al</c><c>   1</c></rc>
    <rc><c>Al</c><c>   1</c></rc>
    <rc><c>Al</c><c>   1</c></rc>
    <rc><c>Al</c><c>   1</c></rc>
    <rc><c>Al</c><c>   1</c></rc>
    <rc><c>Al</c><c>   1</c></rc>
   </set>
  </array>
  <array name="atomtypes" >
   <dimension dim="1">type</dimension>
   <field type="int">atomspertype</field>
   <field type="string">element</field>
   <field>mass</field>
   <field>valence</field>
   <field type="string">pseudopotential</field>
   <set>
    <rc><c>  32</c><c>Al</c><c>     26.98100000</c><c>      3.00000000</c><c>  PAW_PBE Al 04Jan2001                  </c></rc>
   </set>
  </array>
 </atominfo>
 <structure name="initialpos" >
  <crystal>
   <varray name="basis" >
    <v>       7.91528981       0.00000000       0.00000000 </v>
    <v>       0.00000000       7.91528981       0.00000000 </v>
    <v>       0.00000000       0.00000000       7.91528981 </v>
   </varray>
   <i name="volume">    495.90725549 </i>
   <varray name="rec_basis" >
    <v>       0.12633776       0.00000000       0.00000000 </v>
    <v>       0.00000000       0.12633776       0.00000000 </v>
    <v>       0.00000000       0.00000000       0.12633776 </v>
   </varray>
  </crystal>
  <varray name="positions" >
   <v>       0.00126338       0.00000000       0.00000000 </v>
   <v>       0.50000000       0.00000000       0.00000000 </v>
   <v>       0.00000000       0.50000000       0.00000000 </v>
   <v>       0.50000000       0.50000000       0.00000000 </v>
   <v>       0.00000000       0.00000000       0.50000000 </v>
   <v>       0.50000000       0.00000000       0.50000000 </v>
   <v>       0.00000000       0.50000000       0.50000000 </v>
   <v>       0.50000000       0.50000000       0.50000000 </v>
   <v>       0.00000000       0.25000000       0.25000000 </v>
   <v>       0.50000000       0.25000000       0.25000000 </v>
   <v>       0.00000000       0.75000000       0.25000000 </v>
   <v>       0.50000000       0.75000000       0.25000000 </v>
   <v>       0.00000000       0.25000000       0.75000000 </v>
   <v>       0.50000000       0.25000000       0.75000000 </v>
   <v>       0.00000000       0.75000000       0.75000000 </v>
   <v>       0.50000000       0.75000000       0.75000000 </v>
   <v>       0.25000000       0.00000000       0.25000000 </v>
   <v>       0.75000000       0.00000000       0.25000000 </v>
   <v>       0.25000000       0.50000000       0.25000000 </v>
   <v>       0.75000000       0.50000000       0.25000000 </v>
   <v>       0.25000000       0.00000000       0.75000000 </v>
   <v>       0.75000000       0.00000000       0.75000000 </v>
   <v>       0.25000000       0.50000000       0.75000000 </v>
   <v>       0.75000000       0.50000000       0.75000000 </v>
   <v>       0.25000000       0.25000000       0.00000000 </v>
   <v>       0.75000000       0.25000000       0.00000000 </v>
   <v>       0.25000000       0.75000000       0.00000000 </v>
   <v>       0.75000000       0.75000000       0.00000000 </v>
   <v>       0.25000000       0.25000000       0.50000000 </v>
   <v>       0.75000000       0.25000000       0.50000000 </v>
   <v>       0.25000000       0.75000000       0.50000000 </v>
   <v>       0.75000000       0.75000000       0.50000000 </v>
  </varray>
 </structure>
 <calculation>
  <scstep>
   <time name="dav">    5.18    5.25</time>
   <time name="total">    5.20    5.31</time>
   <energy>
    <i name="alphaZ">     -6.93561407 </i>
    <i name="ewald">  -2402.19224156 </i>
    <i name="hartreedc">     -2.62168289 </i>
    <i name="XCdc">   -836.01740322 </i>
    <i name="pawpsdc">   2118.40502803 </i>
    <i name="pawaedc">  -1095.85986421 </i>
    <i name="eentropy">     -0.00989603 </i>
    <i name="bandstr">    599.20238004 </i>
    <i name="atom">   1713.22093829 </i>
    <i name="e_fr_energy">     87.19164438 </i>
    <i name="e_wo_entrp">     87.20154041 </i>
    <i name="e_0_energy">     87.19659239 </i>
   </energy>
  </scstep>
  <scstep>
   <time name="dav">    6.05    6.11</time>
   <time name="total">    6.05    6.11</time>
   <energy>
    <i name="e_fr_energy">   -112.30787210 </i>
    <i name="e_wo_entrp">   -112.29297642 </i>
    <i name="e_0_energy">   -112.30042426 </i>
   </energy>
  </scstep>
  <scstep>
   <time name="dav">    6.44    6.50</time>
   <time name="total">    6.44    6.50</time>
   <energy>
    <i name="e_fr_energy">   -120.06987364 </i>
    <i name="e_wo_entrp">   -120.05928446 </i>
    <i name="e_0_energy">   -120.06457905 </i>
   </energy>
  </scstep>
  <scstep>
   <time name="dav">    5.65    5.70</time>
   <time name="total">    5.65    5.70</time>
   <energy>
    <i name="e_fr_energy">   -120.15898305 </i>
    <i name="e_wo_entrp">   -120.14869278 </i>
    <i name="e_0_energy">   -120.15383791 </i>
   </energy>
  </scstep>
  <scstep>
   <time name="dav">    6.43    6.48</time>
   <time name="total">    6.52    6.60</time>
   <energy>
    <i name="e_fr_energy">   -120.15999395 </i>
    <i name="e_wo_entrp">   -120.14970680 </i>
    <i name="e_0_energy">   -120.15485038 </i>
   </energy>
  </scstep>
  <scstep>
   <time name="dav">    5.74    5.80</time>
   <time name="total">    5.85    5.91</time>
   <energy>
    <i name="e_fr_energy">   -119.72178392 </i>
    <i name="e_wo_entrp">   -119.71163439 </i>
    <i name="e_0_energy">   -119.71670916 </i>
   </energy>
  </scstep>
  <scstep>
   <time name="dav">    5.61    5.65</time>
   <time name="total">    5.71    5.76</time>
   <energy>
    <i name="e_fr_energy">   -119.40429169 </i>
    <i name="e_wo_entrp">   -119.39433427 </i>
    <i name="e_0_energy">   -119.39931298 </i>
   </energy>
  </scstep>
  <scstep>
   <time name="dav">    6.27    6.33</time>
   <time name="total">    6.37    6.42</time>
   <energy>
    <i name="e_fr_energy">   -119.40133498 </i>
    <i name="e_wo_entrp">   -119.39138981 </i>
    <i name="e_0_energy">   -119.39636239 </i>
   </energy>
  </scstep>
  <scstep>
   <time name="dav">    4.73    4.77</time>
   <time name="total">    4.84    4.88</time>
   <energy>
    <i name="e_fr_energy">   -119.40122004 </i>
    <i name="e_wo_entrp">   -119.39127785 </i>
    <i name="e_0_energy">   -119.39624895 </i>
   </energy>
  </scstep>
  <scstep>
   <time name="dav">    4.38    4.42</time>
   <time name="total">    4.40    4.44</time>
   <energy>
    <i name="alphaZ">     -6.93561407 </i>
    <i name="ewald">  -2402.19224156 </i>
    <i name="hartreedc">     -3.74746134 </i>
    <i name="XCdc">   -832.07165277 </i>
    <i name="pawpsdc">   5052.89020843 </i>
    <i name="pawaedc">  -4031.10418778 </i>
    <i name="eentropy">     -0.00994202 </i>
    <i name="bandstr">    390.54874071 </i>
    <i name="atom">   1713.22093829 </i>
    <i name="e_fr_energy">   -119.40121211 </i>
    <i name="e_wo_entrp">   -119.39127009 </i>
    <i name="e_0_energy">   -119.39624110 </i>
   </energy>
  </scstep>
  <structure>
   <crystal>
    <varray name="basis" >
     <v>       7.91528981       0.00000000       0.00000000 </v>
     <v>       0.00000000       7.91528981       0.00000000 </v>
     <v>       0.00000000       0.00000000       7.91528981 </v>
    </varray>
    <i name="volume">    495.90725549 </i>
    <varray name="rec_basis" >
     <v>       0.12633776       0.00000000       0.00000000 </v>
     <v>       0.00000000       0.12633776       0.00000000 </v>
     <v>       0.00000000       0.00000000       0.12633776 </v>
    </varray>
   </crystal>
   <varray name="positions" >
    <v>       0.00126338       0.00000000       0.00000000 </v>
    <v>       0.50000000       0.00000000       0.00000000 </v>
    <v>       0.00000000       0.50000000       0.00000000 </v>
    <v>       0.50000000       0.50000000       0.00000000 </v>
    <v>       0.00000000       0.00000000       0.50000000 </v>
    <v>       0.50000000       0.00000000       0.50000000 </v>
    <v>       0.00000000       0.50000000       0.50000000 </v>
    <v>       0.50000000       0.50000000       0.50000000 </v>
    <v>       0.00000000       0.25000000       0.25000000 </v>
    <v>       0.50000000       0.25000000       0.25000000 </v>
    <v>       0.00000000       0.75000000       0.25000000 </v>
    <v>       0.50000000       0.75000000       0.25000000 </v>
    <v>       0.00000000       0.25000000       0.75000000 </v>
    <v>       0.50000000       0.25000000       0.75000000 </v>
    <v>       0.00000000       0.75000000       0.75000000 </v>
    <v>       0.50000000       0.75000000       0.75000000 </v>
    <v>       0.25000000       0.00000000       0.25000000 </v>
    <v>       0.75000000       0.00000000       0.25000000 </v>
    <v>       0.25000000       0.50000000       0.25000000 </v>
    <v>       0.75000000       0.50000000       0.25000000 </v>
    <v>       0.25000000       0.00000000       0.75000000 </v>
    <v>       0.75000000       0.00000000       0.75000000 </v>
    <v>       0.25000000       0.50000000       0.75000000 </v>
    <v>       0.75000000       0.50000000       0.75000000 </v>
    <v>       0.25000000       0.25000000       0.00000000 </v>
    <v>       0.75000000       0.25000000       0.00000000 </v>
    <v>       0.25000000       0.75000000       0.00000000 </v>
    <v>       0.75000000       0.75000000       0.00000000 </v>
    <v>       0.25000000       0.25000000       0.50000000 </v>
    <v>       0.75000000       0.25000000       0.50000000 </v>
    <v>       0.25000000       0.75000000       0.50000000 </v>
    <v>       0.75000000       0.75000000       0.50000000 </v>
   </varray>
  </structure>
  <varray name="forces" >
   <v>      -0.05981212      -0.00000000       0.00000000 </v>
   <v>       0.00275277      -0.00000000       0.00000000 </v>
   <v>      -0.00041710      -0.00000000       0.00000000 </v>
   <v>       0.00061721      -0.00000000       0.00000000 </v>
   <v>      -0.00041710      -0.00000000       0.00000000 </v>
   <v>       0.00061721      -0.00000000       0.00000000 </v>
   <v>      -0.00015235      -0.00000000       0.00000000 </v>
   <v>      -0.00096107      -0.00000000       0.00000000 </v>
   <v>      -0.00170069      -0.00003091      -0.00003091 </v>
   <v>      -0.00031470       0.00000182       0.00000182 </v>
   <v>      -0.00170069       0.00003091      -0.00003091 </v>
   <v>      -0.00031470      -0.00000182       0.00000182 </v>
   <v>      -0.00170069      -0.00003091       0.00003091 </v>
   <v>      -0.00031470       0.00000182      -0.00000182 </v>
   <v>      -0.00170069       0.00003091       0.00003091 </v>
   <v>      -0.00031470      -0.00000182      -0.00000182 </v>
   <v>       0.00804434      -0.00000000       0.00863666 </v>
   <v>       0.00788955      -0.00000000      -0.00841150 </v>
   <v>       0.00026132      -0.00000000      -0.00010638 </v>
   <v>       0.00026333      -0.00000000       0.00011411 </v>
   <v>       0.00804434      -0.00000000      -0.00863666 </v>
   <v>       0.00788955      -0.00000000       0.00841150 </v>
   <v>       0.00026132      -0.00000000       0.00010638 </v>
   <v>       0.00026333      -0.00000000      -0.00011411 </v>
   <v>       0.00804434       0.00863666       0.00000000 </v>
   <v>       0.00788955      -0.00841150       0.00000000 </v>
   <v>       0.00804434      -0.00863666       0.00000000 </v>
   <v>       0.00788955       0.00841150       0.00000000 </v>
   <v>       0.00026132      -0.00010638       0.00000000 </v>
   <v>       0.00026333       0.00011411       0.00000000 </v>
   <v>       0.00026132       0.00010638       0.00000000 </v>
   <v>       0.00026333      -0.00011411       0.00000000 </v>
  </varray>
  <varray name="stress" >
   <v>      54.69558003       0.00000000       0.00000000 </v>
   <v>      -0.00000000      54.69592071       0.00000000 </v>
   <v>       0.00000000       0.00000000      54.69592071 </v>
  </varray>
  <energy>
   <i name="e_fr_energy">   -119.40121211 </i>
   <i name="e_wo_entrp">   -119.39127009 </i>
   <i name="e_0_energy">   -119.39624110 </i>
  </energy>
  <time name="totalsc">   66.54   67.58</time>
  <eigenvalues>
   <array>
    <dimension dim="1">band</dimension>
    <dimension dim="2">kpoint</dimension>
    <dimension dim="3">spin</dimension>
    <field>eigene</field>
    <field>occ</field>
    <set>
     <set comment="spin 1">
      <set comment="kpoint 1">
       <r>   -2.9044    1.0000 </r>
       <r>   -0.5668    1.0000 </r>
       <r>   -0.5629    1.0000 </r>
       <r>   -0.5629    1.0000 </r>
       <r>   -0.5629    1.0000 </r>
       <r>   -0.5629    1.0000 </r>
       <r>   -0.5591    1.0000 </r>
       <r>    1.7311    1.0000 </r>
       <r>    1.7356    1.0000 </r>
       <r>    1.7356    1.0000 </r>
       <r>    1.7374    1.0000 </r>
       <r>    1.7375    1.0000 </r>
       <r>    1.7375    1.0000 </r>
       <r>    1.7375    1.0000 </r>
       <r>    1.7375    1.0000 </r>
       <r>    1.7377    1.0000 </r>
       <r>    1.7395    1.0000 </r>
       <r>    1.7395    1.0000 </r>
       <r>    1.7440    1.0000 </r>
       <r>    3.8244    1.0000 </r>
       <r>    3.8245    1.0000 </r>
       <r>    3.8245    1.0000 </r>
       <r>    3.8245    1.0000 </r>
       <r>    4.2046    1.0000 </r>
       <r>    4.2046    1.0000 </r>
       <r>    4.2046    1.0000 </r>
       <r>    4.2046    1.0000 </r>
       <r>    5.5952    1.0000 </r>
       <r>    5.5952    1.0000 </r>
       <r>    5.5952    1.0000 </r>
       <r>    7.0518    1.0000 </r>
       <r>    7.0518    1.0000 </r>
       <r>    7.0518    1.0000 </r>
       <r>    7.7406    1.0000 </r>
       <r>    7.7406    1.0000 </r>
       <r>    7.7451    1.0000 </r>
       <r>    7.7451    1.0000 </r>
       <r>    7.7452    1.0000 </r>
       <r>    7.7452    1.0000 </r>
       <r>    7.7452    1.0000 </r>
       <r>    7.7453    1.0000 </r>
       <r>    7.7453    1.0000 </r>
       <r>    7.7453    1.0000 </r>
       <r>    7.7499    1.0000 </r>
       <r>    7.7499    1.0000 </r>
       <r>    8.7222    0.0839 </r>
       <r>    8.7266    0.0665 </r>
       <r>    8.7266    0.0664 </r>
       <r>    8.7266    0.0664 </r>
       <r>    8.7266    0.0664 </r>
       <r>    8.7309    0.0521 </r>
       <r>    9.9008    0.0000 </r>
       <r>    9.9008    0.0000 </r>
       <r>    9.9023    0.0000 </r>
       <r>    9.9048    0.0000 </r>
       <r>    9.9050    0.0000 </r>
       <r>    9.9050    0.0000 </r>
       <r>    9.9050    0.0000 </r>
       <r>    9.9050    0.0000 </r>
       <r>    9.9051    0.0000 </r>
       <r>    9.9077    0.0000 </r>
       <r>    9.9092    0.0000 </r>
       <r>    9.9092    0.0000 </r>
       <r>   10.1356    0.0000 </r>
       <r>   10.1367    0.0000 </r>
       <r>   10.1368    0.0000 </r>
       <r>   10.1368    0.0000 </r>
       <r>   10.1368    0.0000 </r>
       <r>   10.1379    0.0000 </r>
       <r>   11.6162    0.0000 </r>
       <r>   11.6174    0.0000 </r>
       <r>   11.6188    0.0000 </r>
      </set>
      <set comment="kpoint 2">
       <r>   -2.8675    1.0000 </r>
       <r>   -1.1079    1.0000 </r>
       <r>   -0.5267    1.0000 </r>
       <r>   -0.5267    1.0000 </r>
       <r>   -0.5267    1.0000 </r>
       <r>   -0.5267    1.0000 </r>
       <r>    0.0518    1.0000 </r>
       <r>    1.2021    1.0000 </r>
       <r>    1.2021    1.0000 </r>
       <r>    1.2021    1.0000 </r>
       <r>    1.2021    1.0000 </r>
       <r>    1.7732    1.0000 </r>
       <r>    1.7732    1.0000 </r>
       <r>    1.7732    1.0000 </r>
       <r>    1.7732    1.0000 </r>
       <r>    2.3414    1.0000 </r>
       <r>    2.3414    1.0000 </r>
       <r>    2.3414    1.0000 </r>
       <r>    2.3414    1.0000 </r>
       <r>    3.4541    1.0000 </r>
       <r>    3.4541    1.0000 </r>
       <r>    3.4541    1.0000 </r>
       <r>    3.4541    1.0000 </r>
       <r>    4.6429    1.0000 </r>
       <r>    4.6429    1.0000 </r>
       <r>    4.6429    1.0000 </r>
       <r>    4.6429    1.0000 </r>
       <r>    5.0190    1.0000 </r>
       <r>    5.6287    1.0000 </r>
       <r>    5.6287    1.0000 </r>
       <r>    7.0868    1.0000 </r>
       <r>    7.0868    1.0000 </r>
       <r>    7.1815    1.0000 </r>
       <r>    7.1815    1.0000 </r>
       <r>    7.1816    1.0000 </r>
       <r>    7.1816    1.0000 </r>
       <r>    7.2405    1.0000 </r>
       <r>    7.2405    1.0000 </r>
       <r>    7.6910    1.0000 </r>
       <r>    7.7789    1.0000 </r>
       <r>    7.7789    1.0000 </r>
       <r>    7.7789    1.0000 </r>
       <r>    7.7789    1.0000 </r>
       <r>    8.3179    1.0000 </r>
       <r>    8.3179    1.0000 </r>
       <r>    8.5613    0.9992 </r>
       <r>    8.5613    0.9992 </r>
       <r>    9.0830    0.0000 </r>
       <r>    9.0830    0.0000 </r>
       <r>    9.0830    0.0000 </r>
       <r>    9.0830    0.0000 </r>
       <r>    9.3972    0.0000 </r>
       <r>    9.3972    0.0000 </r>
       <r>    9.3980    0.0000 </r>
       <r>    9.3983    0.0000 </r>
       <r>    9.4018    0.0000 </r>
       <r>    9.4020    0.0000 </r>
       <r>    9.4028    0.0000 </r>
       <r>    9.4028    0.0000 </r>
       <r>   10.3646    0.0000 </r>
       <r>   10.3646    0.0000 </r>
       <r>   10.4414    0.0000 </r>
       <r>   10.4414    0.0000 </r>
       <r>   10.4415    0.0000 </r>
       <r>   10.4415    0.0000 </r>
       <r>   10.4796    0.0000 </r>
       <r>   10.4797    0.0000 </r>
       <r>   10.4797    0.0000 </r>
       <r>   10.4797    0.0000 </r>
       <r>   11.1054    0.0000 </r>
       <r>   11.1054    0.0000 </r>
       <r>   11.1054    0.0000 </r>
      </set>
      <set comment="kpoint 3">
       <r>   -2.8675    1.0000 </r>
       <r>   -1.1079    1.0000 </r>
       <r>   -0.5297    1.0000 </r>
       <r>   -0.5267    1.0000 </r>
       <r>   -0.5267    1.0000 </r>
       <r>   -0.5237    1.0000 </r>
       <r>    0.0518    1.0000 </r>
       <r>    1.1991    1.0000 </r>
       <r>    1.2021    1.0000 </r>
       <r>    1.2021    1.0000 </r>
       <r>    1.2051    1.0000 </r>
       <r>    1.7710    1.0000 </r>
       <r>    1.7720    1.0000 </r>
       <r>    1.7744    1.0000 </r>
       <r>    1.7754    1.0000 </r>
       <r>    2.3384    1.0000 </r>
       <r>    2.3414    1.0000 </r>
       <r>    2.3414    1.0000 </r>
       <r>    2.3444    1.0000 </r>
       <r>    3.4520    1.0000 </r>
       <r>    3.4529    1.0000 </r>
       <r>    3.4553    1.0000 </r>
       <r>    3.4562    1.0000 </r>
       <r>    4.6408    1.0000 </r>
       <r>    4.6417    1.0000 </r>
       <r>    4.6441    1.0000 </r>
       <r>    4.6450    1.0000 </r>
       <r>    5.0190    1.0000 </r>
       <r>    5.6287    1.0000 </r>
       <r>    5.6287    1.0000 </r>
       <r>    7.0868    1.0000 </r>
       <r>    7.0868    1.0000 </r>
       <r>    7.1782    1.0000 </r>
       <r>    7.1816    1.0000 </r>
       <r>    7.1816    1.0000 </r>
       <r>    7.1848    1.0000 </r>
       <r>    7.2404    1.0000 </r>
       <r>    7.2406    1.0000 </r>
       <r>    7.6910    1.0000 </r>
       <r>    7.7761    1.0000 </r>
       <r>    7.7789    1.0000 </r>
       <r>    7.7790    1.0000 </r>
       <r>    7.7818    1.0000 </r>
       <r>    8.3179    1.0000 </r>
       <r>    8.3179    1.0000 </r>
       <r>    8.5613    0.9992 </r>
       <r>    8.5613    0.9992 </r>
       <r>    9.0802    0.0000 </r>
       <r>    9.0830    0.0000 </r>
       <r>    9.0831    0.0000 </r>
       <r>    9.0859    0.0000 </r>
       <r>    9.3950    0.0000 </r>
       <r>    9.3971    0.0000 </r>
       <r>    9.3983    0.0000 </r>
       <r>    9.4000    0.0000 </r>
       <r>    9.4004    0.0000 </r>
       <r>    9.4009    0.0000 </r>
       <r>    9.4038    0.0000 </r>
       <r>    9.4048    0.0000 </r>
       <r>   10.3646    0.0000 </r>
       <r>   10.3646    0.0000 </r>
       <r>   10.4402    0.0000 </r>
       <r>   10.4413    0.0000 </r>
       <r>   10.4415    0.0000 </r>
       <r>   10.4427    0.0000 </r>
       <r>   10.4768    0.0000 </r>
       <r>   10.4796    0.0000 </r>
       <r>   10.4797    0.0000 </r>
       <r>   10.4826    0.0000 </r>
       <r>   11.1039    0.0000 </r>
       <r>   11.1054    0.0000 </r>
       <r>   11.1071    0.0000 </r>
      </set>
      <set comment="kpoint 4">
       <r>   -2.7568    1.0000 </r>
       <r>   -1.5821    1.0000 </r>
       <r>   -0.4180    1.0000 </r>
       <r>   -0.4180    1.0000 </r>
       <r>   -0.4180    1.0000 </r>
       <r>   -0.4180    1.0000 </r>
       <r>    0.7330    1.0000 </r>
       <r>    0.7362    1.0000 </r>
       <r>    0.7362    1.0000 </r>
       <r>    0.7362    1.0000 </r>
       <r>    0.7383    1.0000 </r>
       <r>    1.8800    1.0000 </r>
       <r>    1.8800    1.0000 </r>
       <r>    1.8800    1.0000 </r>
       <r>    1.8800    1.0000 </r>
       <r>    3.0070    1.0000 </r>
       <r>    3.0085    1.0000 </r>
       <r>    3.0085    1.0000 </r>
       <r>    3.0091    1.0000 </r>
       <r>    3.0121    1.0000 </r>
       <r>    3.0126    1.0000 </r>
       <r>    3.0126    1.0000 </r>
       <r>    3.0141    1.0000 </r>
       <r>    4.0951    1.0000 </r>
       <r>    5.2915    1.0000 </r>
       <r>    5.2915    1.0000 </r>
       <r>    5.2915    1.0000 </r>
       <r>    5.2915    1.0000 </r>
       <r>    5.7292    1.0000 </r>
       <r>    5.7292    1.0000 </r>
       <r>    6.2920    1.0000 </r>
       <r>    6.2920    1.0000 </r>
       <r>    6.2920    1.0000 </r>
       <r>    6.2920    1.0000 </r>
       <r>    6.8034    1.0000 </r>
       <r>    6.8034    1.0000 </r>
       <r>    7.1912    1.0000 </r>
       <r>    7.1912    1.0000 </r>
       <r>    7.8800    1.0000 </r>
       <r>    7.8800    1.0000 </r>
       <r>    7.8800    1.0000 </r>
       <r>    7.8800    1.0000 </r>
       <r>    8.2324    1.0000 </r>
       <r>    8.2324    1.0000 </r>
       <r>    8.5335    1.0000 </r>
       <r>    8.5335    1.0000 </r>
       <r>    8.5335    1.0000 </r>
       <r>    8.5335    1.0000 </r>
       <r>    8.8041    0.0001 </r>
       <r>    8.9564    0.0000 </r>
       <r>    8.9564    0.0000 </r>
       <r>    8.9593    0.0000 </r>
       <r>    8.9593    0.0000 </r>
       <r>    8.9613    0.0000 </r>
       <r>    8.9613    0.0000 </r>
       <r>    9.4123    0.0000 </r>
       <r>    9.4123    0.0000 </r>
       <r>    9.4123    0.0000 </r>
       <r>    9.4123    0.0000 </r>
       <r>   10.6544    0.0000 </r>
       <r>   10.6544    0.0000 </r>
       <r>   10.6544    0.0000 </r>
       <r>   10.6544    0.0000 </r>
       <r>   10.8800    0.0000 </r>
       <r>   10.8800    0.0000 </r>
       <r>   11.1222    0.0000 </r>
       <r>   11.1222    0.0000 </r>
       <r>   11.1222    0.0000 </r>
       <r>   11.1222    0.0000 </r>
       <r>   11.2936    0.0000 </r>
       <r>   11.2937    0.0000 </r>
       <r>   11.2937    0.0000 </r>
      </set>
      <set comment="kpoint 5">
       <r>   -2.7568    1.0000 </r>
       <r>   -1.5821    1.0000 </r>
       <r>   -0.4209    1.0000 </r>
       <r>   -0.4180    1.0000 </r>
       <r>   -0.4180    1.0000 </r>
       <r>   -0.4150    1.0000 </r>
       <r>    0.7330    1.0000 </r>
       <r>    0.7351    1.0000 </r>
       <r>    0.7362    1.0000 </r>
       <r>    0.7362    1.0000 </r>
       <r>    0.7393    1.0000 </r>
       <r>    1.8778    1.0000 </r>
       <r>    1.8787    1.0000 </r>
       <r>    1.8812    1.0000 </r>
       <r>    1.8822    1.0000 </r>
       <r>    3.0066    1.0000 </r>
       <r>    3.0078    1.0000 </r>
       <r>    3.0092    1.0000 </r>
       <r>    3.0102    1.0000 </r>
       <r>    3.0111    1.0000 </r>
       <r>    3.0121    1.0000 </r>
       <r>    3.0122    1.0000 </r>
       <r>    3.0153    1.0000 </r>
       <r>    4.0951    1.0000 </r>
       <r>    5.2893    1.0000 </r>
       <r>    5.2903    1.0000 </r>
       <r>    5.2928    1.0000 </r>
       <r>    5.2937    1.0000 </r>
       <r>    5.7292    1.0000 </r>
       <r>    5.7293    1.0000 </r>
       <r>    6.2888    1.0000 </r>
       <r>    6.2920    1.0000 </r>
       <r>    6.2920    1.0000 </r>
       <r>    6.2952    1.0000 </r>
       <r>    6.8034    1.0000 </r>
       <r>    6.8034    1.0000 </r>
       <r>    7.1912    1.0000 </r>
       <r>    7.1912    1.0000 </r>
       <r>    7.8772    1.0000 </r>
       <r>    7.8800    1.0000 </r>
       <r>    7.8801    1.0000 </r>
       <r>    7.8829    1.0000 </r>
       <r>    8.2324    1.0000 </r>
       <r>    8.2324    1.0000 </r>
       <r>    8.5310    1.0000 </r>
       <r>    8.5322    1.0000 </r>
       <r>    8.5347    1.0000 </r>
       <r>    8.5360    0.9999 </r>
       <r>    8.8041    0.0001 </r>
       <r>    8.9559    0.0000 </r>
       <r>    8.9584    0.0000 </r>
       <r>    8.9586    0.0000 </r>
       <r>    8.9593    0.0000 </r>
       <r>    8.9594    0.0000 </r>
       <r>    8.9625    0.0000 </r>
       <r>    9.4097    0.0000 </r>
       <r>    9.4123    0.0000 </r>
       <r>    9.4123    0.0000 </r>
       <r>    9.4149    0.0000 </r>
       <r>   10.6520    0.0000 </r>
       <r>   10.6544    0.0000 </r>
       <r>   10.6544    0.0000 </r>
       <r>   10.6569    0.0000 </r>
       <r>   10.8800    0.0000 </r>
       <r>   10.8800    0.0000 </r>
       <r>   11.1192    0.0000 </r>
       <r>   11.1222    0.0000 </r>
       <r>   11.1222    0.0000 </r>
       <r>   11.1251    0.0000 </r>
       <r>   11.2923    0.0000 </r>
       <r>   11.2936    0.0000 </r>
       <r>   11.2952    0.0000 </r>
      </set>
      <set comment="kpoint 6">
       <r>   -2.5726    1.0000 </r>
       <r>   -1.9847    1.0000 </r>
       <r>   -0.2370    1.0000 </r>
       <r>   -0.2370    1.0000 </r>
       <r>   -0.2370    1.0000 </r>
       <r>   -0.2370    1.0000 </r>
       <r>    0.3406    1.0000 </r>
       <r>    0.3406    1.0000 </r>
       <r>    0.3406    1.0000 </r>
       <r>    0.3406    1.0000 </r>
       <r>    1.4851    1.0000 </r>
       <r>    2.0577    1.0000 </r>
       <r>    2.0577    1.0000 </r>
       <r>    2.0577    1.0000 </r>
       <r>    2.0577    1.0000 </r>
       <r>    2.6237    1.0000 </r>
       <r>    2.6237    1.0000 </r>
       <r>    2.6237    1.0000 </r>
       <r>    2.6237    1.0000 </r>
       <r>    3.1732    1.0000 </r>
       <r>    3.7476    1.0000 </r>
       <r>    3.7476    1.0000 </r>
       <r>    3.7476    1.0000 </r>
       <r>    3.7477    1.0000 </r>
       <r>    5.3975    1.0000 </r>
       <r>    5.3975    1.0000 </r>
       <r>    5.3975    1.0000 </r>
       <r>    5.3975    1.0000 </r>
       <r>    5.8969    1.0000 </r>
       <r>    5.8969    1.0000 </r>
       <r>    6.0150    1.0000 </r>
       <r>    6.0150    1.0000 </r>
       <r>    6.0150    1.0000 </r>
       <r>    6.0150    1.0000 </r>
       <r>    6.4338    1.0000 </r>
       <r>    6.4338    1.0000 </r>
       <r>    7.3636    1.0000 </r>
       <r>    7.3636    1.0000 </r>
       <r>    7.6477    1.0000 </r>
       <r>    7.6477    1.0000 </r>
       <r>    7.6477    1.0000 </r>
       <r>    7.6477    1.0000 </r>
       <r>    7.8957    1.0000 </r>
       <r>    7.8957    1.0000 </r>
       <r>    8.0486    1.0000 </r>
       <r>    8.0486    1.0000 </r>
       <r>    8.0486    1.0000 </r>
       <r>    8.0486    1.0000 </r>
       <r>    8.5881    0.9921 </r>
       <r>    8.5881    0.9921 </r>
       <r>    8.5881    0.9921 </r>
       <r>    8.5881    0.9921 </r>
       <r>    9.6631    0.0000 </r>
       <r>    9.6631    0.0000 </r>
       <r>    9.6632    0.0000 </r>
       <r>    9.6632    0.0000 </r>
       <r>    9.6670    0.0000 </r>
       <r>    9.6670    0.0000 </r>
       <r>   10.0410    0.0000 </r>
       <r>   10.2659    0.0000 </r>
       <r>   10.2659    0.0000 </r>
       <r>   10.2659    0.0000 </r>
       <r>   10.2659    0.0000 </r>
       <r>   11.2867    0.0000 </r>
       <r>   11.2867    0.0000 </r>
       <r>   11.5227    0.0000 </r>
       <r>   11.5227    0.0000 </r>
       <r>   11.8328    0.0000 </r>
       <r>   11.8328    0.0000 </r>
       <r>   11.8328    0.0000 </r>
       <r>   11.8328    0.0000 </r>
       <r>   12.4213    0.0000 </r>
      </set>
      <set comment="kpoint 7">
       <r>   -2.5726    1.0000 </r>
       <r>   -1.9847    1.0000 </r>
       <r>   -0.2400    1.0000 </r>
       <r>   -0.2370    1.0000 </r>
       <r>   -0.2370    1.0000 </r>
       <r>   -0.2340    1.0000 </r>
       <r>    0.3376    1.0000 </r>
       <r>    0.3406    1.0000 </r>
       <r>    0.3406    1.0000 </r>
       <r>    0.3436    1.0000 </r>
       <r>    1.4850    1.0000 </r>
       <r>    2.0555    1.0000 </r>
       <r>    2.0565    1.0000 </r>
       <r>    2.0589    1.0000 </r>
       <r>    2.0599    1.0000 </r>
       <r>    2.6215    1.0000 </r>
       <r>    2.6225    1.0000 </r>
       <r>    2.6249    1.0000 </r>
       <r>    2.6259    1.0000 </r>
       <r>    3.1732    1.0000 </r>
       <r>    3.7446    1.0000 </r>
       <r>    3.7476    1.0000 </r>
       <r>    3.7476    1.0000 </r>
       <r>    3.7507    1.0000 </r>
       <r>    5.3944    1.0000 </r>
       <r>    5.3975    1.0000 </r>
       <r>    5.3975    1.0000 </r>
       <r>    5.4007    1.0000 </r>
       <r>    5.8969    1.0000 </r>
       <r>    5.8969    1.0000 </r>
       <r>    6.0127    1.0000 </r>
       <r>    6.0137    1.0000 </r>
       <r>    6.0163    1.0000 </r>
       <r>    6.0173    1.0000 </r>
       <r>    6.4338    1.0000 </r>
       <r>    6.4338    1.0000 </r>
       <r>    7.3636    1.0000 </r>
       <r>    7.3636    1.0000 </r>
       <r>    7.6453    1.0000 </r>
       <r>    7.6464    1.0000 </r>
       <r>    7.6490    1.0000 </r>
       <r>    7.6501    1.0000 </r>
       <r>    7.8957    1.0000 </r>
       <r>    7.8957    1.0000 </r>
       <r>    8.0457    1.0000 </r>
       <r>    8.0486    1.0000 </r>
       <r>    8.0486    1.0000 </r>
       <r>    8.0514    1.0000 </r>
       <r>    8.5853    0.9937 </r>
       <r>    8.5881    0.9921 </r>
       <r>    8.5882    0.9921 </r>
       <r>    8.5910    0.9902 </r>
       <r>    9.6605    0.0000 </r>
       <r>    9.6629    0.0000 </r>
       <r>    9.6632    0.0000 </r>
       <r>    9.6653    0.0000 </r>
       <r>    9.6669    0.0000 </r>
       <r>    9.6677    0.0000 </r>
       <r>   10.0410    0.0000 </r>
       <r>   10.2635    0.0000 </r>
       <r>   10.2659    0.0000 </r>
       <r>   10.2659    0.0000 </r>
       <r>   10.2683    0.0000 </r>
       <r>   11.2867    0.0000 </r>
       <r>   11.2867    0.0000 </r>
       <r>   11.5227    0.0000 </r>
       <r>   11.5227    0.0000 </r>
       <r>   11.8298    0.0000 </r>
       <r>   11.8328    0.0000 </r>
       <r>   11.8328    0.0000 </r>
       <r>   11.8357    0.0000 </r>
       <r>   12.4216    0.0000 </r>
      </set>
      <set comment="kpoint 8">
       <r>   -2.3166    1.0000 </r>
       <r>   -2.3135    1.0000 </r>
       <r>    0.0118    1.0000 </r>
       <r>    0.0151    1.0000 </r>
       <r>    0.0151    1.0000 </r>
       <r>    0.0159    1.0000 </r>
       <r>    0.0162    1.0000 </r>
       <r>    0.0170    1.0000 </r>
       <r>    0.0170    1.0000 </r>
       <r>    0.0202    1.0000 </r>
       <r>    2.2970    1.0000 </r>
       <r>    2.2994    1.0000 </r>
       <r>    2.3041    1.0000 </r>
       <r>    2.3045    1.0000 </r>
       <r>    2.3045    1.0000 </r>
       <r>    2.3053    1.0000 </r>
       <r>    2.3064    1.0000 </r>
       <r>    2.3073    1.0000 </r>
       <r>    2.3073    1.0000 </r>
       <r>    2.3098    1.0000 </r>
       <r>    4.5439    1.0000 </r>
       <r>    4.5439    1.0000 </r>
       <r>    4.5443    1.0000 </r>
       <r>    4.5446    1.0000 </r>
       <r>    4.5450    1.0000 </r>
       <r>    4.5454    1.0000 </r>
       <r>    4.5457    1.0000 </r>
       <r>    4.5457    1.0000 </r>
       <r>    6.1300    1.0000 </r>
       <r>    6.1300    1.0000 </r>
       <r>    6.1334    1.0000 </r>
       <r>    6.1334    1.0000 </r>
       <r>    6.8019    1.0000 </r>
       <r>    6.8019    1.0000 </r>
       <r>    6.8023    1.0000 </r>
       <r>    6.8028    1.0000 </r>
       <r>    6.8030    1.0000 </r>
       <r>    6.8035    1.0000 </r>
       <r>    6.8039    1.0000 </r>
       <r>    6.8039    1.0000 </r>
       <r>    7.5985    1.0000 </r>
       <r>    7.5997    1.0000 </r>
       <r>    7.6016    1.0000 </r>
       <r>    7.6029    1.0000 </r>
       <r>    8.2820    1.0000 </r>
       <r>    8.2820    1.0000 </r>
       <r>    8.2830    1.0000 </r>
       <r>    8.2844    1.0000 </r>
       <r>    8.2847    1.0000 </r>
       <r>    8.2862    1.0000 </r>
       <r>    8.2871    1.0000 </r>
       <r>    8.2871    1.0000 </r>
       <r>    9.9358    0.0000 </r>
       <r>    9.9367    0.0000 </r>
       <r>    9.9367    0.0000 </r>
       <r>    9.9369    0.0000 </r>
       <r>    9.9394    0.0000 </r>
       <r>    9.9395    0.0000 </r>
       <r>    9.9395    0.0000 </r>
       <r>    9.9405    0.0000 </r>
       <r>   10.4421    0.0000 </r>
       <r>   10.4421    0.0000 </r>
       <r>   10.4444    0.0000 </r>
       <r>   10.4444    0.0000 </r>
       <r>   11.3550    0.0000 </r>
       <r>   11.3561    0.0000 </r>
       <r>   12.2333    0.0000 </r>
       <r>   12.2337    0.0000 </r>
       <r>   12.2352    0.0000 </r>
       <r>   12.2355    0.0000 </r>
       <r>   12.6102    0.0000 </r>
       <r>   12.6118    0.0000 </r>
      </set>
      <set comment="kpoint 9">
       <r>   -2.3151    1.0000 </r>
       <r>   -2.3151    1.0000 </r>
       <r>    0.0107    1.0000 </r>
       <r>    0.0154    1.0000 </r>
       <r>    0.0160    1.0000 </r>
       <r>    0.0160    1.0000 </r>
       <r>    0.0160    1.0000 </r>
       <r>    0.0160    1.0000 </r>
       <r>    0.0166    1.0000 </r>
       <r>    0.0214    1.0000 </r>
       <r>    2.2979    1.0000 </r>
       <r>    2.2992    1.0000 </r>
       <r>    2.3031    1.0000 </r>
       <r>    2.3037    1.0000 </r>
       <r>    2.3054    1.0000 </r>
       <r>    2.3056    1.0000 </r>
       <r>    2.3061    1.0000 </r>
       <r>    2.3065    1.0000 </r>
       <r>    2.3081    1.0000 </r>
       <r>    2.3101    1.0000 </r>
       <r>    4.5414    1.0000 </r>
       <r>    4.5420    1.0000 </r>
       <r>    4.5448    1.0000 </r>
       <r>    4.5448    1.0000 </r>
       <r>    4.5448    1.0000 </r>
       <r>    4.5448    1.0000 </r>
       <r>    4.5476    1.0000 </r>
       <r>    4.5482    1.0000 </r>
       <r>    6.1317    1.0000 </r>
       <r>    6.1317    1.0000 </r>
       <r>    6.1317    1.0000 </r>
       <r>    6.1317    1.0000 </r>
       <r>    6.7997    1.0000 </r>
       <r>    6.8014    1.0000 </r>
       <r>    6.8015    1.0000 </r>
       <r>    6.8017    1.0000 </r>
       <r>    6.8041    1.0000 </r>
       <r>    6.8043    1.0000 </r>
       <r>    6.8044    1.0000 </r>
       <r>    6.8061    1.0000 </r>
       <r>    7.6006    1.0000 </r>
       <r>    7.6007    1.0000 </r>
       <r>    7.6007    1.0000 </r>
       <r>    7.6007    1.0000 </r>
       <r>    8.2794    1.0000 </r>
       <r>    8.2841    1.0000 </r>
       <r>    8.2846    1.0000 </r>
       <r>    8.2846    1.0000 </r>
       <r>    8.2846    1.0000 </r>
       <r>    8.2846    1.0000 </r>
       <r>    8.2851    1.0000 </r>
       <r>    8.2898    1.0000 </r>
       <r>    9.9338    0.0000 </r>
       <r>    9.9375    0.0000 </r>
       <r>    9.9381    0.0000 </r>
       <r>    9.9381    0.0000 </r>
       <r>    9.9381    0.0000 </r>
       <r>    9.9381    0.0000 </r>
       <r>    9.9387    0.0000 </r>
       <r>    9.9424    0.0000 </r>
       <r>   10.4432    0.0000 </r>
       <r>   10.4432    0.0000 </r>
       <r>   10.4432    0.0000 </r>
       <r>   10.4432    0.0000 </r>
       <r>   11.3555    0.0000 </r>
       <r>   11.3555    0.0000 </r>
       <r>   12.2344    0.0000 </r>
       <r>   12.2344    0.0000 </r>
       <r>   12.2344    0.0000 </r>
       <r>   12.2344    0.0000 </r>
       <r>   12.6099    0.0000 </r>
       <r>   12.6113    0.0000 </r>
      </set>
      <set comment="kpoint 10">
       <r>   -2.8306    1.0000 </r>
       <r>   -1.0727    1.0000 </r>
       <r>   -1.0703    1.0000 </r>
       <r>   -0.4904    1.0000 </r>
       <r>   -0.4904    1.0000 </r>
       <r>    0.0866    1.0000 </r>
       <r>    0.0891    1.0000 </r>
       <r>    0.6645    1.0000 </r>
       <r>    1.2362    1.0000 </r>
       <r>    1.2372    1.0000 </r>
       <r>    1.2387    1.0000 </r>
       <r>    1.2396    1.0000 </r>
       <r>    1.8081    1.0000 </r>
       <r>    1.8090    1.0000 </r>
       <r>    2.3751    1.0000 </r>
       <r>    2.3760    1.0000 </r>
       <r>    2.3775    1.0000 </r>
       <r>    2.3785    1.0000 </r>
       <r>    2.9388    1.0000 </r>
       <r>    2.9388    1.0000 </r>
       <r>    2.9421    1.0000 </r>
       <r>    3.8924    1.0000 </r>
       <r>    3.8924    1.0000 </r>
       <r>    4.2763    1.0000 </r>
       <r>    4.2763    1.0000 </r>
       <r>    5.0528    1.0000 </r>
       <r>    5.0536    1.0000 </r>
       <r>    5.2224    1.0000 </r>
       <r>    5.2224    1.0000 </r>
       <r>    5.6622    1.0000 </r>
       <r>    6.6816    1.0000 </r>
       <r>    6.6840    1.0000 </r>
       <r>    7.1000    1.0000 </r>
       <r>    7.1000    1.0000 </r>
       <r>    7.1216    1.0000 </r>
       <r>    7.2727    1.0000 </r>
       <r>    7.2755    1.0000 </r>
       <r>    7.3622    1.0000 </r>
       <r>    7.3622    1.0000 </r>
       <r>    7.7192    1.0000 </r>
       <r>    7.7212    1.0000 </r>
       <r>    7.7251    1.0000 </r>
       <r>    7.7259    1.0000 </r>
       <r>    8.3502    1.0000 </r>
       <r>    8.3530    1.0000 </r>
       <r>    8.7999    0.0002 </r>
       <r>    8.8018    0.0001 </r>
       <r>    8.8900    0.0000 </r>
       <r>    8.8902    0.0000 </r>
       <r>    8.8918    0.0000 </r>
       <r>    8.8934    0.0000 </r>
       <r>    8.8935    0.0000 </r>
       <r>    9.0923    0.0000 </r>
       <r>    9.0951    0.0000 </r>
       <r>    9.5098    0.0000 </r>
       <r>    9.5098    0.0000 </r>
       <r>    9.9715    0.0000 </r>
       <r>    9.9733    0.0000 </r>
       <r>    9.9776    0.0000 </r>
       <r>    9.9787    0.0000 </r>
       <r>    9.9793    0.0000 </r>
       <r>    9.9801    0.0000 </r>
       <r>   10.4871    0.0000 </r>
       <r>   10.4878    0.0000 </r>
       <r>   10.5922    0.0000 </r>
       <r>   10.6441    0.0000 </r>
       <r>   10.6441    0.0000 </r>
       <r>   10.8185    0.0000 </r>
       <r>   10.8204    0.0000 </r>
       <r>   11.0545    0.0000 </r>
       <r>   11.6733    0.0000 </r>
       <r>   11.6772    0.0000 </r>
      </set>
      <set comment="kpoint 11">
       <r>   -2.8306    1.0000 </r>
       <r>   -1.0715    1.0000 </r>
       <r>   -1.0715    1.0000 </r>
       <r>   -0.4921    1.0000 </r>
       <r>   -0.4887    1.0000 </r>
       <r>    0.0879    1.0000 </r>
       <r>    0.0879    1.0000 </r>
       <r>    0.6645    1.0000 </r>
       <r>    1.2352    1.0000 </r>
       <r>    1.2372    1.0000 </r>
       <r>    1.2386    1.0000 </r>
       <r>    1.2406    1.0000 </r>
       <r>    1.8085    1.0000 </r>
       <r>    1.8085    1.0000 </r>
       <r>    2.3741    1.0000 </r>
       <r>    2.3761    1.0000 </r>
       <r>    2.3775    1.0000 </r>
       <r>    2.3795    1.0000 </r>
       <r>    2.9371    1.0000 </r>
       <r>    2.9405    1.0000 </r>
       <r>    2.9421    1.0000 </r>
       <r>    3.8924    1.0000 </r>
       <r>    3.8924    1.0000 </r>
       <r>    4.2763    1.0000 </r>
       <r>    4.2763    1.0000 </r>
       <r>    5.0532    1.0000 </r>
       <r>    5.0532    1.0000 </r>
       <r>    5.2207    1.0000 </r>
       <r>    5.2241    1.0000 </r>
       <r>    5.6622    1.0000 </r>
       <r>    6.6828    1.0000 </r>
       <r>    6.6828    1.0000 </r>
       <r>    7.0999    1.0000 </r>
       <r>    7.1000    1.0000 </r>
       <r>    7.1216    1.0000 </r>
       <r>    7.2741    1.0000 </r>
       <r>    7.2741    1.0000 </r>
       <r>    7.3622    1.0000 </r>
       <r>    7.3622    1.0000 </r>
       <r>    7.7205    1.0000 </r>
       <r>    7.7206    1.0000 </r>
       <r>    7.7252    1.0000 </r>
       <r>    7.7252    1.0000 </r>
       <r>    8.3516    1.0000 </r>
       <r>    8.3516    1.0000 </r>
       <r>    8.8008    0.0002 </r>
       <r>    8.8008    0.0002 </r>
       <r>    8.8881    0.0000 </r>
       <r>    8.8908    0.0000 </r>
       <r>    8.8918    0.0000 </r>
       <r>    8.8927    0.0000 </r>
       <r>    8.8955    0.0000 </r>
       <r>    9.0937    0.0000 </r>
       <r>    9.0937    0.0000 </r>
       <r>    9.5098    0.0000 </r>
       <r>    9.5098    0.0000 </r>
       <r>    9.9717    0.0000 </r>
       <r>    9.9725    0.0000 </r>
       <r>    9.9771    0.0000 </r>
       <r>    9.9772    0.0000 </r>
       <r>    9.9806    0.0000 </r>
       <r>    9.9814    0.0000 </r>
       <r>   10.4874    0.0000 </r>
       <r>   10.4874    0.0000 </r>
       <r>   10.5922    0.0000 </r>
       <r>   10.6441    0.0000 </r>
       <r>   10.6441    0.0000 </r>
       <r>   10.8194    0.0000 </r>
       <r>   10.8195    0.0000 </r>
       <r>   11.0545    0.0000 </r>
       <r>   11.6729    0.0000 </r>
       <r>   11.6740    0.0000 </r>
      </set>
      <set comment="kpoint 12">
       <r>   -2.7199    1.0000 </r>
       <r>   -1.5456    1.0000 </r>
       <r>   -0.9623    1.0000 </r>
       <r>   -0.3818    1.0000 </r>
       <r>   -0.3817    1.0000 </r>
       <r>    0.1957    1.0000 </r>
       <r>    0.1970    1.0000 </r>
       <r>    0.7696    1.0000 </r>
       <r>    0.7721    1.0000 </r>
       <r>    0.7734    1.0000 </r>
       <r>    1.3443    1.0000 </r>
       <r>    1.3452    1.0000 </r>
       <r>    1.3457    1.0000 </r>
       <r>    2.4803    1.0000 </r>
       <r>    2.4822    1.0000 </r>
       <r>    2.4828    1.0000 </r>
       <r>    2.4831    1.0000 </r>
       <r>    2.4846    1.0000 </r>
       <r>    3.0472    1.0000 </r>
       <r>    3.0472    1.0000 </r>
       <r>    3.5931    1.0000 </r>
       <r>    3.5933    1.0000 </r>
       <r>    3.6094    1.0000 </r>
       <r>    4.1299    1.0000 </r>
       <r>    4.7827    1.0000 </r>
       <r>    4.7827    1.0000 </r>
       <r>    5.1557    1.0000 </r>
       <r>    5.7627    1.0000 </r>
       <r>    5.7839    1.0000 </r>
       <r>    5.8787    1.0000 </r>
       <r>    5.8787    1.0000 </r>
       <r>    6.2447    1.0000 </r>
       <r>    6.3152    1.0000 </r>
       <r>    6.3152    1.0000 </r>
       <r>    6.8370    1.0000 </r>
       <r>    6.8558    1.0000 </r>
       <r>    7.2252    1.0000 </r>
       <r>    7.3680    1.0000 </r>
       <r>    7.3680    1.0000 </r>
       <r>    7.3751    1.0000 </r>
       <r>    7.8271    1.0000 </r>
       <r>    8.0202    1.0000 </r>
       <r>    8.0202    1.0000 </r>
       <r>    8.0940    1.0000 </r>
       <r>    8.4493    1.0000 </r>
       <r>    8.4493    1.0000 </r>
       <r>    8.4522    1.0000 </r>
       <r>    8.4539    1.0000 </r>
       <r>    8.6865    0.3563 </r>
       <r>    8.8281    0.0000 </r>
       <r>    8.8373    0.0000 </r>
       <r>    8.9810    0.0000 </r>
       <r>    8.9922    0.0000 </r>
       <r>    9.1139    0.0000 </r>
       <r>    9.1139    0.0000 </r>
       <r>    9.5333    0.0000 </r>
       <r>    9.7739    0.0000 </r>
       <r>    9.9527    0.0000 </r>
       <r>    9.9527    0.0000 </r>
       <r>   10.1419    0.0000 </r>
       <r>   10.6149    0.0000 </r>
       <r>   10.6224    0.0000 </r>
       <r>   10.6225    0.0000 </r>
       <r>   10.9404    0.0000 </r>
       <r>   10.9984    0.0000 </r>
       <r>   11.2257    0.0000 </r>
       <r>   11.2258    0.0000 </r>
       <r>   11.2266    0.0000 </r>
       <r>   11.3730    0.0000 </r>
       <r>   11.3730    0.0000 </r>
       <r>   11.3865    0.0000 </r>
       <r>   11.6849    0.0000 </r>
      </set>
      <set comment="kpoint 13">
       <r>   -2.7199    1.0000 </r>
       <r>   -1.5456    1.0000 </r>
       <r>   -0.9623    1.0000 </r>
       <r>   -0.3834    1.0000 </r>
       <r>   -0.3800    1.0000 </r>
       <r>    0.1961    1.0000 </r>
       <r>    0.1966    1.0000 </r>
       <r>    0.7700    1.0000 </r>
       <r>    0.7712    1.0000 </r>
       <r>    0.7740    1.0000 </r>
       <r>    1.3433    1.0000 </r>
       <r>    1.3449    1.0000 </r>
       <r>    1.3470    1.0000 </r>
       <r>    2.4803    1.0000 </r>
       <r>    2.4813    1.0000 </r>
       <r>    2.4824    1.0000 </r>
       <r>    2.4840    1.0000 </r>
       <r>    2.4850    1.0000 </r>
       <r>    3.0455    1.0000 </r>
       <r>    3.0489    1.0000 </r>
       <r>    3.5916    1.0000 </r>
       <r>    3.5949    1.0000 </r>
       <r>    3.6093    1.0000 </r>
       <r>    4.1298    1.0000 </r>
       <r>    4.7810    1.0000 </r>
       <r>    4.7844    1.0000 </r>
       <r>    5.1557    1.0000 </r>
       <r>    5.7628    1.0000 </r>
       <r>    5.7839    1.0000 </r>
       <r>    5.8769    1.0000 </r>
       <r>    5.8804    1.0000 </r>
       <r>    6.2446    1.0000 </r>
       <r>    6.3134    1.0000 </r>
       <r>    6.3169    1.0000 </r>
       <r>    6.8369    1.0000 </r>
       <r>    6.8559    1.0000 </r>
       <r>    7.2252    1.0000 </r>
       <r>    7.3660    1.0000 </r>
       <r>    7.3696    1.0000 </r>
       <r>    7.3754    1.0000 </r>
       <r>    7.8271    1.0000 </r>
       <r>    8.0183    1.0000 </r>
       <r>    8.0220    1.0000 </r>
       <r>    8.0940    1.0000 </r>
       <r>    8.4471    1.0000 </r>
       <r>    8.4507    1.0000 </r>
       <r>    8.4529    1.0000 </r>
       <r>    8.4540    1.0000 </r>
       <r>    8.6865    0.3565 </r>
       <r>    8.8282    0.0000 </r>
       <r>    8.8372    0.0000 </r>
       <r>    8.9808    0.0000 </r>
       <r>    8.9923    0.0000 </r>
       <r>    9.1120    0.0000 </r>
       <r>    9.1158    0.0000 </r>
       <r>    9.5333    0.0000 </r>
       <r>    9.7739    0.0000 </r>
       <r>    9.9517    0.0000 </r>
       <r>    9.9538    0.0000 </r>
       <r>   10.1419    0.0000 </r>
       <r>   10.6145    0.0000 </r>
       <r>   10.6207    0.0000 </r>
       <r>   10.6246    0.0000 </r>
       <r>   10.9404    0.0000 </r>
       <r>   10.9984    0.0000 </r>
       <r>   11.2238    0.0000 </r>
       <r>   11.2262    0.0000 </r>
       <r>   11.2281    0.0000 </r>
       <r>   11.3719    0.0000 </r>
       <r>   11.3741    0.0000 </r>
       <r>   11.3864    0.0000 </r>
       <r>   11.6850    0.0000 </r>
      </set>
      <set comment="kpoint 14">
       <r>   -2.7199    1.0000 </r>
       <r>   -1.5456    1.0000 </r>
       <r>   -0.9623    1.0000 </r>
       <r>   -0.3818    1.0000 </r>
       <r>   -0.3817    1.0000 </r>
       <r>    0.1950    1.0000 </r>
       <r>    0.1977    1.0000 </r>
       <r>    0.7709    1.0000 </r>
       <r>    0.7721    1.0000 </r>
       <r>    0.7721    1.0000 </r>
       <r>    1.3436    1.0000 </r>
       <r>    1.3452    1.0000 </r>
       <r>    1.3465    1.0000 </r>
       <r>    2.4805    1.0000 </r>
       <r>    2.4817    1.0000 </r>
       <r>    2.4824    1.0000 </r>
       <r>    2.4837    1.0000 </r>
       <r>    2.4848    1.0000 </r>
       <r>    3.0472    1.0000 </r>
       <r>    3.0472    1.0000 </r>
       <r>    3.5933    1.0000 </r>
       <r>    3.5933    1.0000 </r>
       <r>    3.6092    1.0000 </r>
       <r>    4.1298    1.0000 </r>
       <r>    4.7827    1.0000 </r>
       <r>    4.7827    1.0000 </r>
       <r>    5.1558    1.0000 </r>
       <r>    5.7628    1.0000 </r>
       <r>    5.7839    1.0000 </r>
       <r>    5.8787    1.0000 </r>
       <r>    5.8787    1.0000 </r>
       <r>    6.2446    1.0000 </r>
       <r>    6.3152    1.0000 </r>
       <r>    6.3152    1.0000 </r>
       <r>    6.8370    1.0000 </r>
       <r>    6.8558    1.0000 </r>
       <r>    7.2252    1.0000 </r>
       <r>    7.3677    1.0000 </r>
       <r>    7.3680    1.0000 </r>
       <r>    7.3754    1.0000 </r>
       <r>    7.8271    1.0000 </r>
       <r>    8.0202    1.0000 </r>
       <r>    8.0202    1.0000 </r>
       <r>    8.0940    1.0000 </r>
       <r>    8.4486    1.0000 </r>
       <r>    8.4493    1.0000 </r>
       <r>    8.4518    1.0000 </r>
       <r>    8.4550    1.0000 </r>
       <r>    8.6865    0.3565 </r>
       <r>    8.8282    0.0000 </r>
       <r>    8.8372    0.0000 </r>
       <r>    8.9810    0.0000 </r>
       <r>    8.9922    0.0000 </r>
       <r>    9.1139    0.0000 </r>
       <r>    9.1139    0.0000 </r>
       <r>    9.5333    0.0000 </r>
       <r>    9.7739    0.0000 </r>
       <r>    9.9527    0.0000 </r>
       <r>    9.9527    0.0000 </r>
       <r>   10.1419    0.0000 </r>
       <r>   10.6146    0.0000 </r>
       <r>   10.6225    0.0000 </r>
       <r>   10.6227    0.0000 </r>
       <r>   10.9404    0.0000 </r>
       <r>   10.9984    0.0000 </r>
       <r>   11.2245    0.0000 </r>
       <r>   11.2258    0.0000 </r>
       <r>   11.2278    0.0000 </r>
       <r>   11.3730    0.0000 </r>
       <r>   11.3730    0.0000 </r>
       <r>   11.3865    0.0000 </r>
       <r>   11.6847    0.0000 </r>
      </set>
      <set comment="kpoint 15">
       <r>   -2.5358    1.0000 </r>
       <r>   -1.9481    1.0000 </r>
       <r>   -0.7806    1.0000 </r>
       <r>   -0.2021    1.0000 </r>
       <r>   -0.2008    1.0000 </r>
       <r>   -0.1993    1.0000 </r>
       <r>    0.3750    1.0000 </r>
       <r>    0.3766    1.0000 </r>
       <r>    0.3779    1.0000 </r>
       <r>    0.9511    1.0000 </r>
       <r>    1.5202    1.0000 </r>
       <r>    1.5238    1.0000 </r>
       <r>    1.5243    1.0000 </r>
       <r>    2.0932    1.0000 </r>
       <r>    2.0932    1.0000 </r>
       <r>    2.6594    1.0000 </r>
       <r>    2.6595    1.0000 </r>
       <r>    3.2082    1.0000 </r>
       <r>    3.2196    1.0000 </r>
       <r>    3.2196    1.0000 </r>
       <r>    3.2216    1.0000 </r>
       <r>    3.7823    1.0000 </r>
       <r>    3.7823    1.0000 </r>
       <r>    4.3403    1.0000 </r>
       <r>    4.8815    1.0000 </r>
       <r>    5.3265    1.0000 </r>
       <r>    5.4291    1.0000 </r>
       <r>    5.4291    1.0000 </r>
       <r>    5.4981    1.0000 </r>
       <r>    5.4981    1.0000 </r>
       <r>    5.8716    1.0000 </r>
       <r>    5.9304    1.0000 </r>
       <r>    5.9758    1.0000 </r>
       <r>    6.4674    1.0000 </r>
       <r>    6.6022    1.0000 </r>
       <r>    6.6022    1.0000 </r>
       <r>    7.1320    1.0000 </r>
       <r>    7.1320    1.0000 </r>
       <r>    7.3956    1.0000 </r>
       <r>    7.5316    1.0000 </r>
       <r>    7.5316    1.0000 </r>
       <r>    7.5434    1.0000 </r>
       <r>    7.9033    1.0000 </r>
       <r>    7.9953    1.0000 </r>
       <r>    8.0747    1.0000 </r>
       <r>    8.0748    1.0000 </r>
       <r>    8.0824    1.0000 </r>
       <r>    8.2309    1.0000 </r>
       <r>    8.2309    1.0000 </r>
       <r>    8.5114    1.0000 </r>
       <r>    8.6215    0.9291 </r>
       <r>    9.1617    0.0000 </r>
       <r>    9.1805    0.0000 </r>
       <r>    9.2296    0.0000 </r>
       <r>    9.7007    0.0000 </r>
       <r>    9.7564    0.0000 </r>
       <r>   10.0727    0.0000 </r>
       <r>   10.1740    0.0000 </r>
       <r>   10.2332    0.0000 </r>
       <r>   10.2332    0.0000 </r>
       <r>   10.8010    0.0000 </r>
       <r>   10.8332    0.0000 </r>
       <r>   10.8401    0.0000 </r>
       <r>   10.8401    0.0000 </r>
       <r>   11.3205    0.0000 </r>
       <r>   11.3253    0.0000 </r>
       <r>   11.3316    0.0000 </r>
       <r>   11.3316    0.0000 </r>
       <r>   11.5665    0.0000 </r>
       <r>   11.9863    0.0000 </r>
       <r>   12.0466    0.0000 </r>
       <r>   12.4079    0.0000 </r>
      </set>
      <set comment="kpoint 16">
       <r>   -2.5358    1.0000 </r>
       <r>   -1.9481    1.0000 </r>
       <r>   -0.7806    1.0000 </r>
       <r>   -0.2030    1.0000 </r>
       <r>   -0.2007    1.0000 </r>
       <r>   -0.1986    1.0000 </r>
       <r>    0.3743    1.0000 </r>
       <r>    0.3764    1.0000 </r>
       <r>    0.3788    1.0000 </r>
       <r>    0.9511    1.0000 </r>
       <r>    1.5200    1.0000 </r>
       <r>    1.5225    1.0000 </r>
       <r>    1.5257    1.0000 </r>
       <r>    2.0915    1.0000 </r>
       <r>    2.0949    1.0000 </r>
       <r>    2.6577    1.0000 </r>
       <r>    2.6612    1.0000 </r>
       <r>    3.2082    1.0000 </r>
       <r>    3.2179    1.0000 </r>
       <r>    3.2211    1.0000 </r>
       <r>    3.2217    1.0000 </r>
       <r>    3.7806    1.0000 </r>
       <r>    3.7841    1.0000 </r>
       <r>    4.3403    1.0000 </r>
       <r>    4.8815    1.0000 </r>
       <r>    5.3265    1.0000 </r>
       <r>    5.4273    1.0000 </r>
       <r>    5.4308    1.0000 </r>
       <r>    5.4964    1.0000 </r>
       <r>    5.4999    1.0000 </r>
       <r>    5.8716    1.0000 </r>
       <r>    5.9305    1.0000 </r>
       <r>    5.9758    1.0000 </r>
       <r>    6.4674    1.0000 </r>
       <r>    6.6004    1.0000 </r>
       <r>    6.6040    1.0000 </r>
       <r>    7.1301    1.0000 </r>
       <r>    7.1338    1.0000 </r>
       <r>    7.3956    1.0000 </r>
[...]
       <r>    3.4271    1.0000 </r>
       <r>    3.4271    1.0000 </r>
       <r>    3.4271    1.0000 </r>
       <r>    3.4272    1.0000 </r>
       <r>    3.4272    1.0000 </r>
       <r>    3.4273    1.0000 </r>
       <r>    3.4273    1.0000 </r>
       <r>    3.4273    1.0000 </r>
       <r>    3.4273    1.0000 </r>
       <r>    3.4273    1.0000 </r>
       <r>    3.4278    1.0000 </r>
       <r>    3.4278    1.0000 </r>
       <r>    3.4281    1.0000 </r>
       <r>    3.4315    1.0000 </r>
       <r>    3.4315    1.0000 </r>
       <r>    3.4376    1.0000 </r>
       <r>    7.8769    1.0000 </r>
       <r>    7.8769    1.0000 </r>
       <r>    7.8792    1.0000 </r>
       <r>    7.8808    1.0000 </r>
       <r>    7.8824    1.0000 </r>
       <r>    7.8829    1.0000 </r>
       <r>    7.8829    1.0000 </r>
       <r>    7.8829    1.0000 </r>
       <r>    7.8831    1.0000 </r>
       <r>    7.8832    1.0000 </r>
       <r>    7.8832    1.0000 </r>
       <r>    7.8832    1.0000 </r>
       <r>    7.8833    1.0000 </r>
       <r>    7.8833    1.0000 </r>
       <r>    7.8833    1.0000 </r>
       <r>    7.8833    1.0000 </r>
       <r>    7.8836    1.0000 </r>
       <r>    7.8836    1.0000 </r>
       <r>    7.8836    1.0000 </r>
       <r>    7.8841    1.0000 </r>
       <r>    7.8857    1.0000 </r>
       <r>    7.8873    1.0000 </r>
       <r>    7.8896    1.0000 </r>
       <r>    7.8896    1.0000 </r>
       <r>   12.2371    0.0000 </r>
       <r>   12.2375    0.0000 </r>
       <r>   12.2375    0.0000 </r>
       <r>   12.2379    0.0000 </r>
       <r>   12.2396    0.0000 </r>
       <r>   12.2400    0.0000 </r>
       <r>   12.2401    0.0000 </r>
       <r>   12.2405    0.0000 </r>
       <r>   12.4881    0.0000 </r>
       <r>   12.4896    0.0000 </r>
       <r>   12.4899    0.0000 </r>
       <r>   12.4908    0.0000 </r>
       <r>   12.4912    0.0000 </r>
       <r>   12.4915    0.0000 </r>
       <r>   12.4919    0.0000 </r>
       <r>   12.4928    0.0000 </r>
      </set>
     </set>
    </set>
   </array>
  </eigenvalues>
  <separator name="orbital magnetization" >
   <v name="MAGDIPOLOUT">      0.00000000      0.00000000      0.00000000</v>
  </separator>
  <dos>
   <i name="efermi">      8.67348427 </i>
   <total>
    <array>
     <dimension dim="1">gridpoints</dimension>
     <dimension dim="2">spin</dimension>
     <field>energy</field>
     <field>total</field>
     <field>integrated</field>
     <set>
      <set comment="spin 1">
       <r>    -3.6836     0.0000     0.0000 </r>
       <r>    -3.6265     0.0000     0.0000 </r>
       <r>    -3.5693     0.0000     0.0000 </r>
       <r>    -3.5122     0.0000     0.0000 </r>
       <r>    -3.4550     0.0000     0.0000 </r>
       <r>    -3.3979     0.0000     0.0000 </r>
       <r>    -3.3407     0.0000     0.0000 </r>
       <r>    -3.2836     0.0000     0.0000 </r>
       <r>    -3.2264     0.0000     0.0000 </r>
       <r>    -3.1693     0.0000     0.0000 </r>
       <r>    -3.1122     0.0000     0.0000 </r>
       <r>    -3.0550     0.0000     0.0000 </r>
       <r>    -2.9979     0.0003     0.0000 </r>
       <r>    -2.9407     0.0187     0.0011 </r>
       <r>    -2.8836     0.2213     0.0137 </r>
       <r>    -2.8264     0.7441     0.0563 </r>
       <r>    -2.7693     0.9858     0.1126 </r>
       <r>    -2.7121     1.5388     0.2005 </r>
       <r>    -2.6550     1.7239     0.2990 </r>
       <r>    -2.5979     1.3611     0.3768 </r>
       <r>    -2.5407     2.3474     0.5110 </r>
       <r>    -2.4836     2.3189     0.6435 </r>
       <r>    -2.4264     2.1236     0.7648 </r>
       <r>    -2.3693     2.7619     0.9226 </r>
       <r>    -2.3121     1.7941     1.0252 </r>
       <r>    -2.2550     3.0627     1.2002 </r>
       <r>    -2.1978     3.3847     1.3936 </r>
       <r>    -2.1407     3.2444     1.5790 </r>
       <r>    -2.0835     3.0331     1.7523 </r>
       <r>    -2.0264     1.8396     1.8574 </r>
       <r>    -1.9693     3.3701     2.0500 </r>
       <r>    -1.9121     4.6184     2.3140 </r>
       <r>    -1.8550     3.4572     2.5115 </r>
       <r>    -1.7978     4.4636     2.7666 </r>
       <r>    -1.7407     2.5479     2.9122 </r>
       <r>    -1.6835     3.0415     3.0860 </r>
       <r>    -1.6264     4.7014     3.3547 </r>
       <r>    -1.5692     4.1310     3.5907 </r>
       <r>    -1.5121     4.0223     3.8206 </r>
       <r>    -1.4550     3.5013     4.0206 </r>
       <r>    -1.3978     4.8198     4.2961 </r>
       <r>    -1.3407     5.6377     4.6182 </r>
       <r>    -1.2835     3.8926     4.8407 </r>
       <r>    -1.2264     4.9331     5.1226 </r>
       <r>    -1.1692     3.0903     5.2992 </r>
       <r>    -1.1121     2.9122     5.4656 </r>
       <r>    -1.0549     6.0631     5.8121 </r>
       <r>    -0.9978     5.4770     6.1250 </r>
       <r>    -0.9407     6.2203     6.4805 </r>
       <r>    -0.8835     5.6657     6.8043 </r>
       <r>    -0.8264     4.1095     7.0391 </r>
       <r>    -0.7692     4.4313     7.2923 </r>
       <r>    -0.7121     4.4371     7.5459 </r>
       <r>    -0.6549     5.4509     7.8574 </r>
       <r>    -0.5978     5.4373     8.1681 </r>
       <r>    -0.5406     3.8807     8.3898 </r>
       <r>    -0.4835     7.4026     8.8129 </r>
       <r>    -0.4264     6.1503     9.1643 </r>
       <r>    -0.3692     6.5603     9.5392 </r>
       <r>    -0.3121     4.7840     9.8126 </r>
       <r>    -0.2549     3.5705    10.0166 </r>
       <r>    -0.1978     7.1142    10.4232 </r>
       <r>    -0.1406     7.2777    10.8390 </r>
       <r>    -0.0835     6.2200    11.1945 </r>
       <r>    -0.0263     4.8329    11.4706 </r>
       <r>     0.0308     3.7363    11.6842 </r>
       <r>     0.0879     6.7896    12.0721 </r>
       <r>     0.1451     6.6854    12.4542 </r>
       <r>     0.2022     6.4820    12.8246 </r>
       <r>     0.2594     6.7791    13.2120 </r>
       <r>     0.3165     5.4699    13.5246 </r>
       <r>     0.3737    10.2216    14.1087 </r>
       <r>     0.4308     7.6617    14.5465 </r>
       <r>     0.4880     4.1857    14.7857 </r>
       <r>     0.5451     5.4053    15.0946 </r>
       <r>     0.6022     3.5479    15.2973 </r>
       <r>     0.6594     6.1958    15.6514 </r>
       <r>     0.7165     8.2037    16.1202 </r>
       <r>     0.7737     9.0277    16.6360 </r>
       <r>     0.8308     7.7083    17.0765 </r>
       <r>     0.8880     5.4567    17.3884 </r>
       <r>     0.9451     8.2311    17.8587 </r>
       <r>     1.0023     7.4424    18.2840 </r>
       <r>     1.0594     6.9682    18.6822 </r>
       <r>     1.1165     8.2840    19.1556 </r>
       <r>     1.1737     4.3437    19.4038 </r>
       <r>     1.2308     6.9011    19.7982 </r>
       <r>     1.2880     8.1215    20.2623 </r>
       <r>     1.3451     8.8777    20.7696 </r>
       <r>     1.4023     7.5839    21.2030 </r>
       <r>     1.4594     4.7529    21.4746 </r>
       <r>     1.5166     7.9970    21.9315 </r>
       <r>     1.5737     7.6514    22.3688 </r>
       <r>     1.6308     7.7728    22.8130 </r>
       <r>     1.6880    10.1855    23.3950 </r>
       <r>     1.7451     5.5527    23.7123 </r>
       <r>     1.8023     8.5234    24.1994 </r>
       <r>     1.8594     9.1856    24.7243 </r>
       <r>     1.9166     8.0754    25.1857 </r>
       <r>     1.9737     9.0244    25.7014 </r>
       <r>     2.0309     6.3815    26.0661 </r>
       <r>     2.0880     8.5531    26.5549 </r>
       <r>     2.1452     8.5663    27.0444 </r>
       <r>     2.2023     7.4866    27.4722 </r>
       <r>     2.2594     5.3846    27.7799 </r>
       <r>     2.3166     4.4254    28.0328 </r>
       <r>     2.3737    10.8704    28.6540 </r>
       <r>     2.4309    10.8209    29.2723 </r>
       <r>     2.4880    10.0408    29.8461 </r>
       <r>     2.5452    10.1377    30.4254 </r>
       <r>     2.6023     7.9033    30.8771 </r>
       <r>     2.6595    11.3299    31.5245 </r>
       <r>     2.7166     8.6228    32.0172 </r>
       <r>     2.7737     6.0643    32.3638 </r>
       <r>     2.8309     6.0409    32.7090 </r>
       <r>     2.8880     6.8616    33.1011 </r>
       <r>     2.9452    11.8841    33.7802 </r>
       <r>     3.0023     8.7922    34.2826 </r>
       <r>     3.0595     9.6203    34.8324 </r>
       <r>     3.1166     8.0559    35.2927 </r>
       <r>     3.1738     6.4616    35.6620 </r>
       <r>     3.2309    11.0441    36.2931 </r>
       <r>     3.2880    11.1573    36.9307 </r>
       <r>     3.3452    12.3074    37.6340 </r>
       <r>     3.4023     8.8708    38.1409 </r>
       <r>     3.4595     4.8655    38.4189 </r>
       <r>     3.5166     8.5667    38.9085 </r>
       <r>     3.5738    10.7694    39.5239 </r>
       <r>     3.6309    11.5899    40.1862 </r>
       <r>     3.6881     8.4927    40.6715 </r>
       <r>     3.7452    10.9628    41.2980 </r>
       <r>     3.8023    13.2026    42.0524 </r>
       <r>     3.8595     8.5757    42.5425 </r>
       <r>     3.9166     9.9878    43.1132 </r>
       <r>     3.9738     4.3892    43.3640 </r>
       <r>     4.0309     6.7588    43.7503 </r>
       <r>     4.0881    14.2546    44.5648 </r>
       <r>     4.1452    11.7842    45.2382 </r>
       <r>     4.2024     8.4675    45.7221 </r>
       <r>     4.2595     6.6564    46.1025 </r>
       <r>     4.3166    11.1474    46.7395 </r>
       <r>     4.3738    11.1133    47.3746 </r>
       <r>     4.4309    12.0106    48.0609 </r>
       <r>     4.4881    10.8833    48.6828 </r>
       <r>     4.5452     8.6656    49.1780 </r>
       <r>     4.6024    11.7791    49.8511 </r>
       <r>     4.6595    10.6544    50.4600 </r>
       <r>     4.7167    12.1894    51.1565 </r>
       <r>     4.7738     9.2012    51.6823 </r>
       <r>     4.8309     6.4233    52.0494 </r>
       <r>     4.8881     6.3788    52.4139 </r>
       <r>     4.9452     9.7645    52.9719 </r>
       <r>     5.0024    12.1271    53.6649 </r>
       <r>     5.0595    11.8068    54.3396 </r>
       <r>     5.1167    12.4579    55.0515 </r>
       <r>     5.1738    13.1414    55.8025 </r>
       <r>     5.2310    11.3586    56.4515 </r>
       <r>     5.2881    11.6147    57.1153 </r>
       <r>     5.3452    11.4929    57.7720 </r>
       <r>     5.4024    10.5189    58.3731 </r>
       <r>     5.4595     9.0514    58.8903 </r>
       <r>     5.5167    12.9141    59.6283 </r>
       <r>     5.5738     9.9641    60.1977 </r>
       <r>     5.6310    10.9005    60.8206 </r>
       <r>     5.6881    11.5766    61.4822 </r>
       <r>     5.7453    11.3714    62.1320 </r>
       <r>     5.8024    12.9465    62.8718 </r>
       <r>     5.8595    12.9444    63.6115 </r>
       <r>     5.9167    14.4371    64.4365 </r>
       <r>     5.9738    11.2861    65.0814 </r>
       <r>     6.0310    11.5115    65.7393 </r>
       <r>     6.0881    10.2633    66.3258 </r>
       <r>     6.1453     9.3527    66.8602 </r>
       <r>     6.2024     9.4285    67.3990 </r>
       <r>     6.2596     9.4530    67.9392 </r>
       <r>     6.3167    17.4109    68.9341 </r>
       <r>     6.3739    14.7043    69.7744 </r>
       <r>     6.4310    11.5072    70.4320 </r>
       <r>     6.4881     8.1273    70.8964 </r>
       <r>     6.5453     4.0554    71.1281 </r>
       <r>     6.6024     7.4587    71.5544 </r>
       <r>     6.6596    13.2457    72.3113 </r>
       <r>     6.7167    18.5331    73.3704 </r>
       <r>     6.7739    12.1025    74.0619 </r>
       <r>     6.8310    10.2913    74.6500 </r>
       <r>     6.8882    12.2407    75.3495 </r>
       <r>     6.9453     7.2556    75.7641 </r>
       <r>     7.0024     5.8604    76.0990 </r>
       <r>     7.0596    10.9533    76.7249 </r>
       <r>     7.1167    14.3017    77.5422 </r>
       <r>     7.1739    10.9823    78.1698 </r>
       <r>     7.2310    12.0941    78.8609 </r>
       <r>     7.2882    13.6762    79.6424 </r>
       <r>     7.3453     8.9281    80.1526 </r>
       <r>     7.4025    11.7386    80.8234 </r>
       <r>     7.4596    10.3003    81.4120 </r>
       <r>     7.5167    12.5964    82.1318 </r>
       <r>     7.5739    15.0012    82.9891 </r>
       <r>     7.6310     9.3677    83.5244 </r>
       <r>     7.6882     9.7763    84.0831 </r>
       <r>     7.7453    12.6073    84.8035 </r>
       <r>     7.8025    13.9465    85.6005 </r>
       <r>     7.8596    13.1327    86.3509 </r>
       <r>     7.9168    12.8094    87.0829 </r>
       <r>     7.9739    12.7156    87.8095 </r>
       <r>     8.0310    12.4586    88.5215 </r>
       <r>     8.0882    13.0694    89.2683 </r>
       <r>     8.1453    11.7912    89.9421 </r>
       <r>     8.2025     8.7991    90.4449 </r>
       <r>     8.2596    13.1460    91.1962 </r>
       <r>     8.3168    11.1592    91.8338 </r>
       <r>     8.3739    10.4104    92.4287 </r>
       <r>     8.4311    11.2446    93.0713 </r>
       <r>     8.4882    12.0516    93.7600 </r>
       <r>     8.5453    10.7813    94.3761 </r>
       <r>     8.6025    13.5194    95.1487 </r>
       <r>     8.6596    12.7899    95.8795 </r>
       <r>     8.7168     7.5126    96.3088 </r>
       <r>     8.7739     9.0085    96.8236 </r>
       <r>     8.8311    12.3400    97.5288 </r>
       <r>     8.8882    11.8802    98.2077 </r>
       <r>     8.9454    11.9037    98.8879 </r>
       <r>     9.0025    15.8163    99.7917 </r>
       <r>     9.0596    16.4742   100.7331 </r>
       <r>     9.1168    14.8164   101.5798 </r>
       <r>     9.1739    15.4718   102.4639 </r>
       <r>     9.2311    14.7961   103.3095 </r>
       <r>     9.2882    15.1519   104.1753 </r>
       <r>     9.3454    16.7504   105.1325 </r>
       <r>     9.4025    10.5224   105.7338 </r>
       <r>     9.4597    10.4521   106.3311 </r>
       <r>     9.5168    11.1829   106.9701 </r>
       <r>     9.5739    12.4044   107.6790 </r>
       <r>     9.6311     9.3751   108.2147 </r>
       <r>     9.6882     9.7492   108.7718 </r>
       <r>     9.7454    11.8058   109.4465 </r>
       <r>     9.8025    12.6707   110.1705 </r>
       <r>     9.8597     9.0922   110.6901 </r>
       <r>     9.9168    10.5887   111.2952 </r>
       <r>     9.9740    16.6390   112.2460 </r>
       <r>    10.0311    21.2543   113.4606 </r>
       <r>    10.0882    12.8461   114.1947 </r>
       <r>    10.1454    14.4188   115.0186 </r>
       <r>    10.2025    18.4201   116.0712 </r>
       <r>    10.2597    12.9441   116.8109 </r>
       <r>    10.3168    12.1826   117.5071 </r>
       <r>    10.3740    12.3034   118.2101 </r>
       <r>    10.4311    10.9454   118.8356 </r>
       <r>    10.4883    11.5730   119.4969 </r>
       <r>    10.5454    10.6265   120.1042 </r>
       <r>    10.6025     9.1325   120.6261 </r>
       <r>    10.6597    11.2682   121.2700 </r>
       <r>    10.7168    15.8013   122.1729 </r>
       <r>    10.7740    17.3277   123.1631 </r>
       <r>    10.8311    18.2392   124.2054 </r>
       <r>    10.8883    15.0521   125.0655 </r>
       <r>    10.9454    11.7548   125.7373 </r>
       <r>    11.0026    14.1213   126.5442 </r>
       <r>    11.0597    11.3952   127.1954 </r>
       <r>    11.1169    11.3265   127.8426 </r>
       <r>    11.1740    12.9284   128.5814 </r>
       <r>    11.2311    17.8221   129.5999 </r>
       <r>    11.2883    14.1870   130.4106 </r>
       <r>    11.3454    10.7291   131.0237 </r>
       <r>    11.4026    13.3599   131.7871 </r>
       <r>    11.4597    12.6164   132.5081 </r>
       <r>    11.5169    11.0784   133.1412 </r>
       <r>    11.5740    15.6923   134.0379 </r>
       <r>    11.6312    18.8492   135.1150 </r>
       <r>    11.6883    10.0339   135.6884 </r>
       <r>    11.7454    10.3315   136.2788 </r>
       <r>    11.8026    13.1945   137.0328 </r>
       <r>    11.8597    15.8236   137.9370 </r>
       <r>    11.9169    12.6726   138.6612 </r>
       <r>    11.9740    12.3165   139.3650 </r>
       <r>    12.0312    16.7794   140.3239 </r>
       <r>    12.0883    15.3967   141.2037 </r>
       <r>    12.1455     9.3392   141.7374 </r>
       <r>    12.2026     5.3886   142.0453 </r>
       <r>    12.2597     7.1869   142.4560 </r>
       <r>    12.3169     8.3154   142.9312 </r>
       <r>    12.3740     4.0149   143.1606 </r>
       <r>    12.4312     5.5507   143.4778 </r>
       <r>    12.4883     3.3294   143.6681 </r>
       <r>    12.5455     1.3511   143.7453 </r>
       <r>    12.6026     1.8297   143.8498 </r>
       <r>    12.6598     1.3696   143.9281 </r>
       <r>    12.7169     1.0169   143.9862 </r>
       <r>    12.7740     0.2351   143.9996 </r>
       <r>    12.8312     0.0063   144.0000 </r>
       <r>    12.8883     0.0000   144.0000 </r>
       <r>    12.9455     0.0000   144.0000 </r>
       <r>    13.0026     0.0000   144.0000 </r>
       <r>    13.0598     0.0000   144.0000 </r>
       <r>    13.1169     0.0000   144.0000 </r>
       <r>    13.1741     0.0000   144.0000 </r>
       <r>    13.2312     0.0000   144.0000 </r>
       <r>    13.2883     0.0000   144.0000 </r>
       <r>    13.3455     0.0000   144.0000 </r>
       <r>    13.4026     0.0000   144.0000 </r>
       <r>    13.4598     0.0000   144.0000 </r>
      </set>
     </set>
    </array>
   </total>
  </dos>
 </calculation>
 <structure name="finalpos" >
  <crystal>
   <varray name="basis" >
    <v>       7.91528981       0.00000000       0.00000000 </v>
    <v>       0.00000000       7.91528981       0.00000000 </v>
    <v>       0.00000000       0.00000000       7.91528981 </v>
   </varray>
   <i name="volume">    495.90725549 </i>
   <varray name="rec_basis" >
    <v>       0.12633776       0.00000000       0.00000000 </v>
    <v>       0.00000000       0.12633776       0.00000000 </v>
    <v>       0.00000000       0.00000000       0.12633776 </v>
   </varray>
  </crystal>
  <varray name="positions" >
   <v>       0.00126338       0.00000000       0.00000000 </v>
   <v>       0.50000000       0.00000000       0.00000000 </v>
   <v>       0.00000000       0.50000000       0.00000000 </v>
   <v>       0.50000000       0.50000000       0.00000000 </v>
   <v>       0.00000000       0.00000000       0.50000000 </v>
   <v>       0.50000000       0.00000000       0.50000000 </v>
   <v>       0.00000000       0.50000000       0.50000000 </v>
   <v>       0.50000000       0.50000000       0.50000000 </v>
   <v>       0.00000000       0.25000000       0.25000000 </v>
   <v>       0.50000000       0.25000000       0.25000000 </v>
   <v>       0.00000000       0.75000000       0.25000000 </v>
   <v>       0.50000000       0.75000000       0.25000000 </v>
   <v>       0.00000000       0.25000000       0.75000000 </v>
   <v>       0.50000000       0.25000000       0.75000000 </v>
   <v>       0.00000000       0.75000000       0.75000000 </v>
   <v>       0.50000000       0.75000000       0.75000000 </v>
   <v>       0.25000000       0.00000000       0.25000000 </v>
   <v>       0.75000000       0.00000000       0.25000000 </v>
   <v>       0.25000000       0.50000000       0.25000000 </v>
   <v>       0.75000000       0.50000000       0.25000000 </v>
   <v>       0.25000000       0.00000000       0.75000000 </v>
   <v>       0.75000000       0.00000000       0.75000000 </v>
   <v>       0.25000000       0.50000000       0.75000000 </v>
   <v>       0.75000000       0.50000000       0.75000000 </v>
   <v>       0.25000000       0.25000000       0.00000000 </v>
   <v>       0.75000000       0.25000000       0.00000000 </v>
   <v>       0.25000000       0.75000000       0.00000000 </v>
   <v>       0.75000000       0.75000000       0.00000000 </v>
   <v>       0.25000000       0.25000000       0.50000000 </v>
   <v>       0.75000000       0.25000000       0.50000000 </v>
   <v>       0.25000000       0.75000000       0.50000000 </v>
   <v>       0.75000000       0.75000000       0.50000000 </v>
  </varray>
 </structure>
</modeling>
