<?xml version="1.0" encoding="ISO-8859-1"?>
<modeling>
 <generator>
  <i name="program" type="string">vasp </i>
  <i name="version" type="string">6.3.0  </i>
  <i name="subversion" type="string">20Jan22 (build Feb 10 2022 15:15:41) complex                          parallel </i>
  <i name="platform" type="string">LinuxIFC </i>
  <i name="date" type="string">2023 10 04 </i>
  <i name="time" type="string">16:13:39 </i>
 </generator>
 <incar>
  <i name="EDIFF">      0.00010000</i>
  <i name="ENCUT">    400.00000000</i>
  <i type="int" name="ISMEAR">     0</i>
  <i name="SIGMA">      0.05000000</i>
 </incar>
 <primitive_cell>
  <structure name="primitive_cell" >
   <crystal>
    <varray name="basis" >
     <v>       8.23836286       0.00000000       0.00000000 </v>
     <v>       0.00000000       8.23836286       0.00000000 </v>
     <v>       0.00000000       0.00000000       8.23836286 </v>
    </varray>
    <i name="volume">    559.14281761 </i>
    <varray name="rec_basis" >
     <v>       0.12138334       0.00000000       0.00000000 </v>
     <v>       0.00000000       0.12138334       0.00000000 </v>
     <v>       0.00000000       0.00000000       0.12138334 </v>
    </varray>
   </crystal>
   <varray name="positions" >
    <v>       0.00121383       0.00000000       0.00000000 </v>
    <v>       0.50000000       0.00000000       0.00000000 </v>
    <v>       0.00000000       0.50000000       0.00000000 </v>
    <v>       0.50000000       0.50000000       0.00000000 </v>
    <v>       0.00000000       0.00000000       0.50000000 </v>
    <v>       0.50000000       0.00000000       0.50000000 </v>
    <v>       0.00000000       0.50000000       0.50000000 </v>
    <v>       0.50000000       0.50000000       0.50000000 </v>
    <v>       0.00000000       0.25000000       0.25000000 </v>
    <v>       0.50000000       0.25000000       0.25000000 </v>
    <v>       0.00000000       0.75000000       0.25000000 </v>
    <v>       0.50000000       0.75000000       0.25000000 </v>
    <v>       0.00000000       0.25000000       0.75000000 </v>
    <v>       0.50000000       0.25000000       0.75000000 </v>
    <v>       0.00000000       0.75000000       0.75000000 </v>
    <v>       0.50000000       0.75000000       0.75000000 </v>
    <v>       0.25000000       0.00000000       0.25000000 </v>
    <v>       0.75000000       0.00000000       0.25000000 </v>
    <v>       0.25000000       0.50000000       0.25000000 </v>
    <v>       0.75000000       0.50000000       0.25000000 </v>
    <v>       0.25000000       0.00000000       0.75000000 </v>
    <v>       0.75000000       0.00000000       0.75000000 </v>
    <v>       0.25000000       0.50000000       0.75000000 </v>
    <v>       0.75000000       0.50000000       0.75000000 </v>
    <v>       0.25000000       0.25000000       0.00000000 </v>
    <v>       0.75000000       0.25000000       0.00000000 </v>
    <v>       0.25000000       0.75000000       0.00000000 </v>
    <v>       0.75000000       0.75000000       0.00000000 </v>
    <v>       0.25000000       0.25000000       0.50000000 </v>
    <v>       0.75000000       0.25000000       0.50000000 </v>
    <v>       0.25000000       0.75000000       0.50000000 </v>
    <v>       0.75000000       0.75000000       0.50000000 </v>
   </varray>
  </structure>
  <varray name="primitive_index" >
   <v type="int" >        1 </v>
   <v type="int" >        2 </v>
   <v type="int" >        3 </v>
   <v type="int" >        4 </v>
   <v type="int" >        5 </v>
   <v type="int" >        6 </v>
   <v type="int" >        7 </v>
   <v type="int" >        8 </v>
   <v type="int" >        9 </v>
   <v type="int" >       10 </v>
   <v type="int" >       11 </v>
   <v type="int" >       12 </v>
   <v type="int" >       13 </v>
   <v type="int" >       14 </v>
   <v type="int" >       15 </v>
   <v type="int" >       16 </v>
   <v type="int" >       17 </v>
   <v type="int" >       18 </v>
   <v type="int" >       19 </v>
   <v type="int" >       20 </v>
   <v type="int" >       21 </v>
   <v type="int" >       22 </v>
   <v type="int" >       23 </v>
   <v type="int" >       24 </v>
   <v type="int" >       25 </v>
   <v type="int" >       26 </v>
   <v type="int" >       27 </v>
   <v type="int" >       28 </v>
   <v type="int" >       29 </v>
   <v type="int" >       30 </v>
   <v type="int" >       31 </v>
   <v type="int" >       32 </v>
  </varray>
 </primitive_cell>
 <kpoints>
  <generation param="Gamma">
   <v type="int" name="divisions">       8        8        8 </v>
   <v name="usershift">      0.00000000       0.00000000       0.00000000 </v>
   <v name="genvec1">      0.12500000       0.00000000       0.00000000 </v>
   <v name="genvec2">      0.00000000       0.12500000       0.00000000 </v>
   <v name="genvec3">      0.00000000       0.00000000       0.12500000 </v>
   <v name="shift">      0.00000000       0.00000000       0.00000000 </v>
  </generation>
  <varray name="kpointlist" >
   <v>       0.00000000       0.00000000       0.00000000 </v>
   <v>       0.12500000       0.00000000       0.00000000 </v>
   <v>       0.00000000       0.12500000       0.00000000 </v>
   <v>       0.25000000       0.00000000       0.00000000 </v>
   <v>       0.00000000       0.25000000       0.00000000 </v>
   <v>       0.37500000       0.00000000       0.00000000 </v>
   <v>       0.00000000       0.37500000       0.00000000 </v>
   <v>       0.50000000       0.00000000       0.00000000 </v>
   <v>       0.00000000       0.50000000       0.00000000 </v>
   <v>       0.12500000       0.12500000       0.00000000 </v>
   <v>       0.00000000       0.12500000       0.12500000 </v>
   <v>       0.25000000       0.12500000       0.00000000 </v>
   <v>       0.00000000       0.25000000       0.12500000 </v>
   <v>       0.12500000       0.00000000       0.25000000 </v>
   <v>       0.37500000       0.12500000       0.00000000 </v>
   <v>       0.00000000       0.37500000       0.12500000 </v>
   <v>       0.12500000       0.00000000       0.37500000 </v>
   <v>       0.50000000       0.12500000       0.00000000 </v>
   <v>       0.00000000       0.50000000       0.12500000 </v>
   <v>       0.12500000       0.00000000       0.50000000 </v>
   <v>       0.25000000       0.25000000       0.00000000 </v>
   <v>       0.00000000       0.25000000       0.25000000 </v>
   <v>       0.37500000       0.25000000       0.00000000 </v>
   <v>       0.00000000       0.37500000       0.25000000 </v>
   <v>       0.25000000       0.00000000       0.37500000 </v>
   <v>       0.50000000       0.25000000       0.00000000 </v>
   <v>       0.00000000       0.50000000       0.25000000 </v>
   <v>       0.25000000       0.00000000       0.50000000 </v>
   <v>       0.37500000       0.37500000       0.00000000 </v>
   <v>       0.00000000       0.37500000       0.37500000 </v>
   <v>       0.50000000       0.37500000       0.00000000 </v>
   <v>       0.00000000       0.50000000       0.37500000 </v>
   <v>       0.37500000       0.00000000       0.50000000 </v>
   <v>       0.50000000       0.50000000       0.00000000 </v>
   <v>       0.00000000       0.50000000       0.50000000 </v>
   <v>       0.12500000       0.12500000       0.12500000 </v>
   <v>       0.25000000       0.12500000       0.12500000 </v>
   <v>       0.12500000       0.25000000       0.12500000 </v>
   <v>       0.37500000       0.12500000       0.12500000 </v>
   <v>       0.12500000       0.37500000       0.12500000 </v>
   <v>       0.50000000       0.12500000       0.12500000 </v>
   <v>       0.12500000       0.50000000       0.12500000 </v>
   <v>       0.25000000       0.25000000       0.12500000 </v>
   <v>       0.12500000       0.25000000       0.25000000 </v>
   <v>       0.37500000       0.25000000       0.12500000 </v>
   <v>       0.12500000       0.37500000       0.25000000 </v>
   <v>       0.25000000       0.12500000       0.37500000 </v>
   <v>       0.50000000       0.25000000       0.12500000 </v>
   <v>       0.12500000       0.50000000       0.25000000 </v>
   <v>       0.25000000       0.12500000       0.50000000 </v>
   <v>       0.37500000       0.37500000       0.12500000 </v>
   <v>       0.12500000       0.37500000       0.37500000 </v>
   <v>       0.50000000       0.37500000       0.12500000 </v>
   <v>       0.12500000       0.50000000       0.37500000 </v>
   <v>       0.37500000       0.12500000       0.50000000 </v>
   <v>       0.50000000       0.50000000       0.12500000 </v>
   <v>       0.12500000       0.50000000       0.50000000 </v>
   <v>       0.25000000       0.25000000       0.25000000 </v>
   <v>       0.37500000       0.25000000       0.25000000 </v>
   <v>       0.25000000       0.37500000       0.25000000 </v>
   <v>       0.50000000       0.25000000       0.25000000 </v>
   <v>       0.25000000       0.50000000       0.25000000 </v>
   <v>       0.37500000       0.37500000       0.25000000 </v>
   <v>       0.25000000       0.37500000       0.37500000 </v>
   <v>       0.50000000       0.37500000       0.25000000 </v>
   <v>       0.25000000       0.50000000       0.37500000 </v>
   <v>       0.37500000       0.25000000       0.50000000 </v>
   <v>       0.50000000       0.50000000       0.25000000 </v>
   <v>       0.25000000       0.50000000       0.50000000 </v>
   <v>       0.37500000       0.37500000       0.37500000 </v>
   <v>       0.50000000       0.37500000       0.37500000 </v>
   <v>       0.37500000       0.50000000       0.37500000 </v>
   <v>       0.50000000       0.50000000       0.37500000 </v>
   <v>       0.37500000       0.50000000       0.50000000 </v>
   <v>       0.50000000       0.50000000       0.50000000 </v>
  </varray>
  <varray name="weights" >
   <v>       0.00195312 </v>
   <v>       0.00390625 </v>
   <v>       0.00781250 </v>
   <v>       0.00390625 </v>
   <v>       0.00781250 </v>
   <v>       0.00390625 </v>
   <v>       0.00781250 </v>
   <v>       0.00195312 </v>
   <v>       0.00390625 </v>
   <v>       0.01562500 </v>
   <v>       0.00781250 </v>
   <v>       0.01562500 </v>
   <v>       0.01562500 </v>
   <v>       0.01562500 </v>
   <v>       0.01562500 </v>
   <v>       0.01562500 </v>
   <v>       0.01562500 </v>
   <v>       0.00781250 </v>
   <v>       0.00781250 </v>
   <v>       0.00781250 </v>
   <v>       0.01562500 </v>
   <v>       0.00781250 </v>
   <v>       0.01562500 </v>
   <v>       0.01562500 </v>
   <v>       0.01562500 </v>
   <v>       0.00781250 </v>
   <v>       0.00781250 </v>
   <v>       0.00781250 </v>
   <v>       0.01562500 </v>
   <v>       0.00781250 </v>
   <v>       0.00781250 </v>
   <v>       0.00781250 </v>
   <v>       0.00781250 </v>
   <v>       0.00390625 </v>
   <v>       0.00195312 </v>
   <v>       0.01562500 </v>
   <v>       0.01562500 </v>
   <v>       0.03125000 </v>
   <v>       0.01562500 </v>
   <v>       0.03125000 </v>
   <v>       0.00781250 </v>
   <v>       0.01562500 </v>
   <v>       0.03125000 </v>
   <v>       0.01562500 </v>
   <v>       0.03125000 </v>
   <v>       0.03125000 </v>
   <v>       0.03125000 </v>
   <v>       0.01562500 </v>
   <v>       0.01562500 </v>
   <v>       0.01562500 </v>
   <v>       0.03125000 </v>
   <v>       0.01562500 </v>
   <v>       0.01562500 </v>
   <v>       0.01562500 </v>
   <v>       0.01562500 </v>
   <v>       0.00781250 </v>
   <v>       0.00390625 </v>
   <v>       0.01562500 </v>
   <v>       0.01562500 </v>
   <v>       0.03125000 </v>
   <v>       0.00781250 </v>
   <v>       0.01562500 </v>
   <v>       0.03125000 </v>
   <v>       0.01562500 </v>
   <v>       0.01562500 </v>
   <v>       0.01562500 </v>
   <v>       0.01562500 </v>
   <v>       0.00781250 </v>
   <v>       0.00390625 </v>
   <v>       0.01562500 </v>
   <v>       0.00781250 </v>
   <v>       0.01562500 </v>
   <v>       0.00781250 </v>
   <v>       0.00390625 </v>
   <v>       0.00195312 </v>
  </varray>
 </kpoints>
 <parameters>
  <separator name="general" >
   <i type="string" name="SYSTEM">unknown system</i>
   <i type="logical" name="LCOMPAT"> F  </i>
  </separator>
  <separator name="electronic" >
   <i type="string" name="PREC">normal</i>
   <i name="ENMAX">    400.00000000</i>
   <i name="ENAUG">    291.05200000</i>
   <i name="EDIFF">      0.00010000</i>
   <i type="int" name="IALGO">    38</i>
   <i type="int" name="IWAVPR">    10</i>
   <i type="int" name="NBANDS">    72</i>
   <i type="int" name="NBANDSLOW">    -1</i>
   <i type="int" name="NBANDSHIGH">    -1</i>
   <i name="NELECT">     96.00000000</i>
   <i type="int" name="TURBO">     0</i>
   <i type="int" name="IRESTART">     0</i>
   <i type="int" name="NREBOOT">     0</i>
   <i type="int" name="NMIN">     0</i>
   <i name="EREF">      0.00000000</i>
   <separator name="electronic smearing" >
    <i type="int" name="ISMEAR">     0</i>
    <i name="SIGMA">      0.05000000</i>
    <i name="KSPACING">      0.50000000</i>
    <i type="logical" name="KGAMMA"> T  </i>
    <i type="logical" name="KBLOWUP"> T  </i>
   </separator>
   <separator name="electronic projectors" >
    <i type="logical" name="LREAL"> F  </i>
    <v name="ROPT">      0.00000000</v>
    <i type="int" name="LMAXPAW">  -100</i>
    <i type="int" name="LMAXMIX">     2</i>
    <i type="logical" name="NLSPLINE"> F  </i>
   </separator>
   <separator name="electronic startup" >
    <i type="int" name="ISTART">     0</i>
    <i type="int" name="ICHARG">     2</i>
    <i type="int" name="INIWAV">     1</i>
   </separator>
   <separator name="electronic spin" >
    <i type="int" name="ISPIN">     1</i>
    <i type="logical" name="LNONCOLLINEAR"> F  </i>
    <v name="MAGMOM">      1.00000000      1.00000000      1.00000000      1.00000000      1.00000000      1.00000000      1.00000000      1.00000000      1.00000000      1.00000000      1.00000000      1.00000000      1.00000000      1.00000000      1.00000000      1.00000000      1.00000000      1.00000000      1.00000000      1.00000000
      1.00000000      1.00000000      1.00000000      1.00000000      1.00000000      1.00000000      1.00000000      1.00000000      1.00000000      1.00000000      1.00000000      1.00000000</v>
    <i name="NUPDOWN">     -1.00000000</i>
    <i type="logical" name="LSORBIT"> F  </i>
    <v name="SAXIS">      0.00000000      0.00000000      1.00000000</v>
    <i type="logical" name="LSPIRAL"> F  </i>
    <v name="QSPIRAL">      0.00000000      0.00000000      0.00000000</v>
    <i type="logical" name="LZEROZ"> F  </i>
   </separator>
   <separator name="electronic exchange-correlation" >
    <i type="logical" name="LASPH"> F  </i>
    <i type="logical" name="LMETAGGA"> F  </i>
   </separator>
   <separator name="electronic convergence" >
    <i type="int" name="NELM">    60</i>
    <i type="int" name="NELMDL">    -5</i>
    <i type="int" name="NELMIN">     2</i>
    <i name="ENINI">    400.00000000</i>
    <separator name="electronic convergence detail" >
     <i type="logical" name="LDIAG"> T  </i>
     <i type="logical" name="LSUBROT"> F  </i>
     <i name="WEIMIN">      0.00000000</i>
     <i name="EBREAK">      0.00000035</i>
     <i name="DEPER">      0.30000000</i>
     <i type="int" name="NRMM">     4</i>
     <i name="TIME">      0.40000000</i>
    </separator>
   </separator>
   <separator name="electronic mixer" >
    <i name="AMIX">      0.40000000</i>
    <i name="BMIX">      1.00000000</i>
    <i name="AMIN">      0.10000000</i>
    <i name="AMIX_MAG">      1.60000000</i>
    <i name="BMIX_MAG">      1.00000000</i>
    <separator name="electronic mixer details" >
     <i type="int" name="IMIX">     4</i>
     <i type="logical" name="MIXFIRST"> F  </i>
     <i type="int" name="MAXMIX">   -45</i>
     <i name="WC">    100.00000000</i>
     <i type="int" name="INIMIX">     1</i>
     <i type="int" name="MIXPRE">     1</i>
     <i type="int" name="MREMOVE">     5</i>
    </separator>
   </separator>
   <separator name="electronic dipolcorrection" >
    <i type="logical" name="LDIPOL"> F  </i>
    <i type="logical" name="LMONO"> F  </i>
    <i type="int" name="IDIPOL">     0</i>
    <i name="EPSILON">      1.00000000</i>
    <v name="DIPOL">   -100.00000000   -100.00000000   -100.00000000</v>
    <i name="EFIELD">      0.00000000</i>
   </separator>
  </separator>
  <separator name="grids" >
   <i type="int" name="NGX">    40</i>
   <i type="int" name="NGY">    40</i>
   <i type="int" name="NGZ">    40</i>
   <i type="int" name="NGXF">    80</i>
   <i type="int" name="NGYF">    80</i>
   <i type="int" name="NGZF">    80</i>
   <i type="logical" name="ADDGRID"> F  </i>
  </separator>
  <separator name="ionic" >
   <i type="int" name="NSW">     0</i>
   <i type="int" name="IBRION">    -1</i>
   <i type="int" name="MDALGO">     0</i>
   <i type="int" name="ISIF">     2</i>
   <i name="PSTRESS">      0.00000000</i>
   <i name="EDIFFG">      0.00100000</i>
   <i type="int" name="NFREE">     0</i>
   <i name="POTIM">      0.50000000</i>
   <i name="SMASS">     -3.00000000</i>
   <i name="SCALEE">      1.00000000</i>
  </separator>
  <separator name="ionic md" >
   <i name="TEBEG">      0.00010000</i>
   <i name="TEEND">      0.00010000</i>
   <i type="int" name="NBLOCK">     1</i>
   <i type="int" name="KBLOCK">     1</i>
   <i type="int" name="NPACO">   256</i>
   <i name="APACO">     10.00000000</i>
  </separator>
  <separator name="symmetry" >
   <i type="int" name="ISYM">     2</i>
   <i name="SYMPREC">      0.00001000</i>
  </separator>
  <separator name="dos" >
   <i type="int" name="LORBIT">     0</i>
   <v name="RWIGS">     -1.00000000</v>
   <i type="int" name="NEDOS">   301</i>
   <i name="EMIN">     10.00000000</i>
   <i name="EMAX">    -10.00000000</i>
   <i name="EFERMI">      0.00000000</i>
  </separator>
  <separator name="writing" >
   <i type="int" name="NWRITE">     2</i>
   <i type="logical" name="LWAVE"> T  </i>
   <i type="logical" name="LDOWNSAMPLE"> F  </i>
   <i type="logical" name="LCHARG"> T  </i>
   <i type="logical" name="LPARD"> F  </i>
   <i type="logical" name="LVTOT"> F  </i>
   <i type="logical" name="LVHAR"> F  </i>
   <i type="logical" name="LELF"> F  </i>
   <i type="logical" name="LOPTICS"> F  </i>
   <v name="STM">      0.00000000      0.00000000      0.00000000      0.00000000      0.00000000      0.00000000      0.00000000</v>
  </separator>
  <separator name="performance" >
   <i type="int" name="NPAR">    24</i>
   <i type="int" name="NSIM">     4</i>
   <i type="int" name="NBLK">    -1</i>
   <i type="logical" name="LPLANE"> T  </i>
   <i type="logical" name="LSCALAPACK"> T  </i>
   <i type="logical" name="LSCAAWARE"> F  </i>
   <i type="logical" name="LSCALU"> F  </i>
   <i type="logical" name="LASYNC"> F  </i>
   <i type="logical" name="LORBITALREAL"> F  </i>
  </separator>
  <separator name="miscellaneous" >
   <i type="int" name="IDIOT">     3</i>
   <i type="int" name="PHON_NSTRUCT">    -1</i>
   <i type="logical" name="LMUSIC"> F  </i>
   <v name="POMASS">     26.98100000</v>
   <v name="DARWINR">      0.00000000</v>
   <v name="DARWINV">      1.00000000</v>
   <i type="logical" name="LCORR"> T  </i>
  </separator>
  <i type="logical" name="GGA_COMPAT"> T  </i>
  <i type="logical" name="LBERRY"> F  </i>
  <i type="int" name="ICORELEVEL">     0</i>
  <i type="logical" name="LDAU"> F  </i>
  <i type="int" name="I_CONSTRAINED_M">     0</i>
  <separator name="electronic exchange-correlation" >
   <i type="string" name="GGA">--</i>
   <i type="int" name="VOSKOWN">     0</i>
   <i type="logical" name="LHFCALC"> F  </i>
   <i type="string" name="PRECFOCK"></i>
   <i type="logical" name="LSYMGRAD"> F  </i>
   <i type="logical" name="LHFONE"> F  </i>
   <i type="logical" name="LRHFCALC"> F  </i>
   <i type="logical" name="LTHOMAS"> F  </i>
   <i type="logical" name="LMODELHF"> F  </i>
   <i type="logical" name="LFOCKACE"> F  </i>
   <i name="ENCUT4O">     -1.00000000</i>
   <i type="int" name="EXXOEP">     0</i>
   <i type="int" name="FOURORBIT">     0</i>
   <i name="AEXX">      0.00000000</i>
   <i name="HFALPHA">      0.00000000</i>
   <i name="MCALPHA">      0.00000000</i>
   <i name="ALDAX">      1.00000000</i>
   <i name="AGGAX">      1.00000000</i>
   <i name="ALDAC">      1.00000000</i>
   <i name="AGGAC">      1.00000000</i>
   <i type="int" name="NKREDX">     1</i>
   <i type="int" name="NKREDY">     1</i>
   <i type="int" name="NKREDZ">     1</i>
   <i type="logical" name="SHIFTRED"> F  </i>
   <i type="logical" name="ODDONLY"> F  </i>
   <i type="logical" name="EVENONLY"> F  </i>
   <i type="int" name="LMAXFOCK">     0</i>
   <i type="int" name="NMAXFOCKAE">     0</i>
   <i type="logical" name="LFOCKAEDFT"> F  </i>
   <i name="HFSCREEN">      0.00000000</i>
   <i name="HFSCREENC">      0.00000000</i>
   <i type="int" name="NBANDSGWLOW">     0</i>
  </separator>
  <separator name="vdW DFT" >
   <i type="logical" name="LUSE_VDW"> F  </i>
   <i name="Zab_VDW">     -0.84910000</i>
   <i name="PARAM1">      0.12340000</i>
   <i name="PARAM2">      1.00000000</i>
   <i name="PARAM3">      0.00000000</i>
  </separator>
  <separator name="model GW" >
   <i type="int" name="MODEL_GW">     0</i>
   <i name="MODEL_EPS0">     10.48392783</i>
   <i name="MODEL_ALPHA">      1.00000000</i>
  </separator>
  <separator name="linear response parameters" >
   <i type="logical" name="LEPSILON"> F  </i>
   <i type="logical" name="LRPA"> F  </i>
   <i type="logical" name="LNABLA"> F  </i>
   <i type="logical" name="LVEL"> F  </i>
   <i name="CSHIFT">      0.10000000</i>
   <i name="OMEGAMAX">     -1.00000000</i>
   <i name="DEG_THRESHOLD">      0.00200000</i>
   <i name="RTIME">     -0.10000000</i>
   <i name="WPLASMAI">      0.00000000</i>
   <v name="DFIELD">      0.00000000      0.00000000      0.00000000</v>
   <v name="WPLASMA">      0.00000000      0.00000000      0.00000000      0.00000000      0.00000000      0.00000000      0.00000000      0.00000000      0.00000000</v>
  </separator>
  <separator name="orbital magnetization" >
   <i type="logical" name="NUCIND"> F  </i>
   <v name="MAGPOS">      0.00000000      0.00000000      0.00000000</v>
   <i type="logical" name="LNICSALL"> T  </i>
   <i type="logical" name="ORBITALMAG"> F  </i>
   <i type="logical" name="LMAGBLOCH"> F  </i>
   <i type="logical" name="LCHIMAG"> F  </i>
   <i type="logical" name="LGAUGE"> T  </i>
   <i type="int" name="MAGATOM">     0</i>
   <v name="MAGDIPOL">      0.00000000      0.00000000      0.00000000</v>
   <v name="AVECCONST">      0.00000000      0.00000000      0.00000000</v>
  </separator>
  <separator name="response functions" >
   <i type="logical" name="LFINITE_TEMPERATURE"> F  </i>
   <i type="logical" name="LADDER"> F  </i>
   <i type="logical" name="LRPAFORCE"> F  </i>
   <i type="logical" name="LFXC"> F  </i>
   <i type="logical" name="LHARTREE"> T  </i>
   <i type="int" name="IBSE">     0</i>
   <v type="int" name="KPOINT">    -1     0     0     0</v>
   <i type="logical" name="LTCTC"> F  </i>
   <i type="logical" name="LTCTE"> F  </i>
   <i type="logical" name="LTETE"> F  </i>
   <i type="logical" name="LTRIPLET"> F  </i>
   <i type="logical" name="LFXCEPS"> F  </i>
   <i type="logical" name="LFXHEG"> F  </i>
   <i type="int" name="NATURALO">     2</i>
   <i type="logical" name="LHOLEGF"> F  </i>
   <i type="logical" name="L2ORDER"> F  </i>
   <i type="logical" name="LDMP1"> F  </i>
   <i type="logical" name="LMP2LT"> F  </i>
   <i type="logical" name="LSMP2LT"> F  </i>
   <i type="logical" name="LGWLF"> F  </i>
   <i name="ENCUTGW">     -2.00000000</i>
   <i name="ENCUTGWSOFT">     -2.00000000</i>
   <i name="ENCUTLF">     -1.00000000</i>
   <i type="logical" name="LESF_SPLINES"> F  </i>
   <i type="int" name="LMAXMP2">    -1</i>
   <i name="SCISSOR">      0.00000000</i>
   <i type="int" name="NOMEGA">     0</i>
   <i type="int" name="NOMEGAR">     0</i>
   <i type="int" name="NBANDSGW">    -1</i>
   <i type="int" name="NBANDSO">    -1</i>
   <i type="int" name="NBANDSV">    -1</i>
   <i type="int" name="NELMGW">     1</i>
   <i type="int" name="NELMHF">     1</i>
   <i type="int" name="DIM">     3</i>
   <i type="int" name="IESPILON">     4</i>
   <i type="int" name="ANTIRES">     0</i>
   <i name="OMEGAMAX">    -30.00000000</i>
   <i name="OMEGAMIN">    -30.00000000</i>
   <i name="OMEGATL">   -200.00000000</i>
   <i type="int" name="OMEGAGRID">     0</i>
   <i name="CSHIFT">     -0.10000000</i>
   <i type="logical" name="LSELFENERGY"> F  </i>
   <i type="logical" name="LSPECTRAL"> F  </i>
   <i type="logical" name="LSPECTRALGW"> F  </i>
   <i type="logical" name="LSINGLES"> F  </i>
   <i type="logical" name="LFERMIGW"> F  </i>
   <i type="logical" name="ODDONLYGW"> F  </i>
   <i type="logical" name="EVENONLYGW"> F  </i>
   <i type="int" name="NKREDLFX">     1</i>
   <i type="int" name="NKREDLFY">     1</i>
   <i type="int" name="NKREDLFZ">     1</i>
   <i type="int" name="MAXMEM">  2800</i>
   <i type="int" name="TELESCOPE">     0</i>
   <i type="int" name="NTAUPAR">    -1</i>
   <i type="int" name="NOMEGAPAR">    -1</i>
   <i name="DAMP_NEWTON">      0.80000001</i>
   <i name="LAMBDA">      1.00000000</i>
  </separator>
  <separator name="External order field" >
   <i name="OFIELD_KAPPA">      0.00000000</i>
   <v name="OFIELD_K">      0.00000000      0.00000000      0.00000000</v>
   <i name="OFIELD_Q6_NEAR">      0.00000000</i>
   <i name="OFIELD_Q6_FAR">      0.00000000</i>
   <i name="OFIELD_A">      0.00000000</i>
  </separator>
  <separator name="optional k-points parameters" >
   <i type="int" name="KPOINTS_OPT_MODE">     1</i>
   <i type="logical" name="LKPOINTS_OPT"> F  </i>
  </separator>
 </parameters>
 <atominfo>
  <atoms>      32 </atoms>
  <types>       1 </types>
  <array name="atoms" >
   <dimension dim="1">ion</dimension>
   <field type="string">element</field>
   <field type="int">atomtype</field>
   <set>
    <rc><c>Al</c><c>   1</c></rc>
    <rc><c>Al</c><c>   1</c></rc>
    <rc><c>Al</c><c>   1</c></rc>
    <rc><c>Al</c><c>   1</c></rc>
    <rc><c>Al</c><c>   1</c></rc>
    <rc><c>Al</c><c>   1</c></rc>
    <rc><c>Al</c><c>   1</c></rc>
    <rc><c>Al</c><c>   1</c></rc>
    <rc><c>Al</c><c>   1</c></rc>
    <rc><c>Al</c><c>   1</c></rc>
    <rc><c>Al</c><c>   1</c></rc>
    <rc><c>Al</c><c>   1</c></rc>
    <rc><c>Al</c><c>   1</c></rc>
    <rc><c>Al</c><c>   1</c></rc>
    <rc><c>Al</c><c>   1</c></rc>
    <rc><c>Al</c><c>   1</c></rc>
    <rc><c>Al</c><c>   1</c></rc>
    <rc><c>Al</c><c>   1</c></rc>
    <rc><c>Al</c><c>   1</c></rc>
    <rc><c>Al</c><c>   1</c></rc>
    <rc><c>Al</c><c>   1</c></rc>
    <rc><c>Al</c><c>   1</c></rc>
    <rc><c>Al</c><c>   1</c></rc>
    <rc><c>Al</c><c>   1</c></rc>
    <rc><c>Al</c><c>   1</c></rc>
    <rc><c>Al</c><c>   1</c></rc>
    <rc><c>Al</c><c>   1</c></rc>
    <rc><c>Al</c><c>   1</c></rc>
    <rc><c>Al</c><c>   1</c></rc>
    <rc><c>Al</c><c>   1</c></rc>
    <rc><c>Al</c><c>   1</c></rc>
    <rc><c>Al</c><c>   1</c></rc>
   </set>
  </array>
  <array name="atomtypes" >
   <dimension dim="1">type</dimension>
   <field type="int">atomspertype</field>
   <field type="string">element</field>
   <field>mass</field>
   <field>valence</field>
   <field type="string">pseudopotential</field>
   <set>
    <rc><c>  32</c><c>Al</c><c>     26.98100000</c><c>      3.00000000</c><c>  PAW_PBE Al 04Jan2001                  </c></rc>
   </set>
  </array>
 </atominfo>
 <structure name="initialpos" >
  <crystal>
   <varray name="basis" >
    <v>       8.23836286       0.00000000       0.00000000 </v>
    <v>       0.00000000       8.23836286       0.00000000 </v>
    <v>       0.00000000       0.00000000       8.23836286 </v>
   </varray>
   <i name="volume">    559.14281761 </i>
   <varray name="rec_basis" >
    <v>       0.12138334       0.00000000       0.00000000 </v>
    <v>       0.00000000       0.12138334       0.00000000 </v>
    <v>       0.00000000       0.00000000       0.12138334 </v>
   </varray>
  </crystal>
  <varray name="positions" >
   <v>       0.00121383       0.00000000       0.00000000 </v>
   <v>       0.50000000       0.00000000       0.00000000 </v>
   <v>       0.00000000       0.50000000       0.00000000 </v>
   <v>       0.50000000       0.50000000       0.00000000 </v>
   <v>       0.00000000       0.00000000       0.50000000 </v>
   <v>       0.50000000       0.00000000       0.50000000 </v>
   <v>       0.00000000       0.50000000       0.50000000 </v>
   <v>       0.50000000       0.50000000       0.50000000 </v>
   <v>       0.00000000       0.25000000       0.25000000 </v>
   <v>       0.50000000       0.25000000       0.25000000 </v>
   <v>       0.00000000       0.75000000       0.25000000 </v>
   <v>       0.50000000       0.75000000       0.25000000 </v>
   <v>       0.00000000       0.25000000       0.75000000 </v>
   <v>       0.50000000       0.25000000       0.75000000 </v>
   <v>       0.00000000       0.75000000       0.75000000 </v>
   <v>       0.50000000       0.75000000       0.75000000 </v>
   <v>       0.25000000       0.00000000       0.25000000 </v>
   <v>       0.75000000       0.00000000       0.25000000 </v>
   <v>       0.25000000       0.50000000       0.25000000 </v>
   <v>       0.75000000       0.50000000       0.25000000 </v>
   <v>       0.25000000       0.00000000       0.75000000 </v>
   <v>       0.75000000       0.00000000       0.75000000 </v>
   <v>       0.25000000       0.50000000       0.75000000 </v>
   <v>       0.75000000       0.50000000       0.75000000 </v>
   <v>       0.25000000       0.25000000       0.00000000 </v>
   <v>       0.75000000       0.25000000       0.00000000 </v>
   <v>       0.25000000       0.75000000       0.00000000 </v>
   <v>       0.75000000       0.75000000       0.00000000 </v>
   <v>       0.25000000       0.25000000       0.50000000 </v>
   <v>       0.75000000       0.25000000       0.50000000 </v>
   <v>       0.25000000       0.75000000       0.50000000 </v>
   <v>       0.75000000       0.75000000       0.50000000 </v>
  </varray>
 </structure>
 <calculation>
  <scstep>
   <time name="dav">    4.45    4.47</time>
   <time name="total">    4.46    4.49</time>
   <energy>
    <i name="alphaZ">     -6.15123941 </i>
    <i name="ewald">  -2307.98874960 </i>
    <i name="hartreedc">     -4.04335962 </i>
    <i name="XCdc">   -842.93886443 </i>
    <i name="pawpsdc">   2118.40502803 </i>
    <i name="pawaedc">  -1095.85986421 </i>
    <i name="eentropy">     -0.00996492 </i>
    <i name="bandstr">    502.24377110 </i>
    <i name="atom">   1713.22093829 </i>
    <i name="e_fr_energy">     76.87769522 </i>
    <i name="e_wo_entrp">     76.88766014 </i>
    <i name="e_0_energy">     76.88267768 </i>
   </energy>
  </scstep>
  <scstep>
   <time name="dav">    5.25    5.31</time>
   <time name="total">    5.25    5.31</time>
   <energy>
    <i name="e_fr_energy">   -112.39472973 </i>
    <i name="e_wo_entrp">   -112.37759456 </i>
    <i name="e_0_energy">   -112.38616215 </i>
   </energy>
  </scstep>
  <scstep>
   <time name="dav">    5.59    5.62</time>
   <time name="total">    5.59    5.62</time>
   <energy>
    <i name="e_fr_energy">   -120.07281347 </i>
    <i name="e_wo_entrp">   -120.05877704 </i>
    <i name="e_0_energy">   -120.06579525 </i>
   </energy>
  </scstep>
  <scstep>
   <time name="dav">    4.89    4.92</time>
   <time name="total">    4.89    4.92</time>
   <energy>
    <i name="e_fr_energy">   -120.16864333 </i>
    <i name="e_wo_entrp">   -120.15522962 </i>
    <i name="e_0_energy">   -120.16193647 </i>
   </energy>
  </scstep>
  <scstep>
   <time name="dav">    5.53    5.56</time>
   <time name="total">    5.60    5.64</time>
   <energy>
    <i name="e_fr_energy">   -120.16979457 </i>
    <i name="e_wo_entrp">   -120.15639050 </i>
    <i name="e_0_energy">   -120.16309253 </i>
   </energy>
  </scstep>
  <scstep>
   <time name="dav">    4.96    4.99</time>
   <time name="total">    5.06    5.10</time>
   <energy>
    <i name="e_fr_energy">   -119.76824039 </i>
    <i name="e_wo_entrp">   -119.75474034 </i>
    <i name="e_0_energy">   -119.76149037 </i>
   </energy>
  </scstep>
  <scstep>
   <time name="dav">    5.10    5.13</time>
   <time name="total">    5.18    5.22</time>
   <energy>
    <i name="e_fr_energy">   -119.47738359 </i>
    <i name="e_wo_entrp">   -119.46365452 </i>
    <i name="e_0_energy">   -119.47051906 </i>
   </energy>
  </scstep>
  <scstep>
   <time name="dav">    5.37    5.40</time>
   <time name="total">    5.46    5.51</time>
   <energy>
    <i name="e_fr_energy">   -119.47481365 </i>
    <i name="e_wo_entrp">   -119.46106568 </i>
    <i name="e_0_energy">   -119.46793967 </i>
   </energy>
  </scstep>
  <scstep>
   <time name="dav">    4.24    4.26</time>
   <time name="total">    4.25    4.28</time>
   <energy>
    <i name="alphaZ">     -6.15123941 </i>
    <i name="ewald">  -2307.98874960 </i>
    <i name="hartreedc">     -3.19911755 </i>
    <i name="XCdc">   -839.84525761 </i>
    <i name="pawpsdc">   4101.93898115 </i>
    <i name="pawaedc">  -3079.52991379 </i>
    <i name="eentropy">     -0.01375265 </i>
    <i name="bandstr">    302.09335752 </i>
    <i name="atom">   1713.22093829 </i>
    <i name="e_fr_energy">   -119.47475365 </i>
    <i name="e_wo_entrp">   -119.46100100 </i>
    <i name="e_0_energy">   -119.46787733 </i>
   </energy>
  </scstep>
  <structure>
   <crystal>
    <varray name="basis" >
     <v>       8.23836286       0.00000000       0.00000000 </v>
     <v>       0.00000000       8.23836286       0.00000000 </v>
     <v>       0.00000000       0.00000000       8.23836286 </v>
    </varray>
    <i name="volume">    559.14281761 </i>
    <varray name="rec_basis" >
     <v>       0.12138334       0.00000000       0.00000000 </v>
     <v>       0.00000000       0.12138334       0.00000000 </v>
     <v>       0.00000000       0.00000000       0.12138334 </v>
    </varray>
   </crystal>
   <varray name="positions" >
    <v>       0.00121383       0.00000000       0.00000000 </v>
    <v>       0.50000000       0.00000000       0.00000000 </v>
    <v>       0.00000000       0.50000000       0.00000000 </v>
    <v>       0.50000000       0.50000000       0.00000000 </v>
    <v>       0.00000000       0.00000000       0.50000000 </v>
    <v>       0.50000000       0.00000000       0.50000000 </v>
    <v>       0.00000000       0.50000000       0.50000000 </v>
    <v>       0.50000000       0.50000000       0.50000000 </v>
    <v>       0.00000000       0.25000000       0.25000000 </v>
    <v>       0.50000000       0.25000000       0.25000000 </v>
    <v>       0.00000000       0.75000000       0.25000000 </v>
    <v>       0.50000000       0.75000000       0.25000000 </v>
    <v>       0.00000000       0.25000000       0.75000000 </v>
    <v>       0.50000000       0.25000000       0.75000000 </v>
    <v>       0.00000000       0.75000000       0.75000000 </v>
    <v>       0.50000000       0.75000000       0.75000000 </v>
    <v>       0.25000000       0.00000000       0.25000000 </v>
    <v>       0.75000000       0.00000000       0.25000000 </v>
    <v>       0.25000000       0.50000000       0.25000000 </v>
    <v>       0.75000000       0.50000000       0.25000000 </v>
    <v>       0.25000000       0.00000000       0.75000000 </v>
    <v>       0.75000000       0.00000000       0.75000000 </v>
    <v>       0.25000000       0.50000000       0.75000000 </v>
    <v>       0.75000000       0.50000000       0.75000000 </v>
    <v>       0.25000000       0.25000000       0.00000000 </v>
    <v>       0.75000000       0.25000000       0.00000000 </v>
    <v>       0.25000000       0.75000000       0.00000000 </v>
    <v>       0.75000000       0.75000000       0.00000000 </v>
    <v>       0.25000000       0.25000000       0.50000000 </v>
    <v>       0.75000000       0.25000000       0.50000000 </v>
    <v>       0.25000000       0.75000000       0.50000000 </v>
    <v>       0.75000000       0.75000000       0.50000000 </v>
   </varray>
  </structure>
  <varray name="forces" >
   <v>      -0.03572361      -0.00000000       0.00000000 </v>
   <v>       0.00226576      -0.00000000       0.00000000 </v>
   <v>      -0.00046482       0.00000000       0.00000000 </v>
   <v>       0.00070408      -0.00000000       0.00000000 </v>
   <v>      -0.00046482      -0.00000000       0.00000000 </v>
   <v>       0.00070408      -0.00000000       0.00000000 </v>
   <v>      -0.00016510      -0.00000000       0.00000000 </v>
   <v>      -0.00100104       0.00000000       0.00000000 </v>
   <v>      -0.00141148      -0.00000709      -0.00000709 </v>
   <v>      -0.00024288       0.00000472       0.00000472 </v>
   <v>      -0.00141148       0.00000709      -0.00000709 </v>
   <v>      -0.00024288      -0.00000472       0.00000472 </v>
   <v>      -0.00141148      -0.00000709       0.00000709 </v>
   <v>      -0.00024288       0.00000472      -0.00000472 </v>
   <v>      -0.00141148       0.00000709       0.00000709 </v>
   <v>      -0.00024288      -0.00000472      -0.00000472 </v>
   <v>       0.00495605       0.00000000       0.00515917 </v>
   <v>       0.00483424      -0.00000000      -0.00495559 </v>
   <v>       0.00020114       0.00000000      -0.00006176 </v>
   <v>       0.00019930      -0.00000000       0.00006380 </v>
   <v>       0.00495605      -0.00000000      -0.00515917 </v>
   <v>       0.00483424      -0.00000000       0.00495559 </v>
   <v>       0.00020114       0.00000000       0.00006176 </v>
   <v>       0.00019930       0.00000000      -0.00006380 </v>
   <v>       0.00495605       0.00515917       0.00000000 </v>
   <v>       0.00483424      -0.00495559       0.00000000 </v>
   <v>       0.00495605      -0.00515917       0.00000000 </v>
   <v>       0.00483424       0.00495559       0.00000000 </v>
   <v>       0.00020114      -0.00006176       0.00000000 </v>
   <v>       0.00019930       0.00006380       0.00000000 </v>
   <v>       0.00020114       0.00006176       0.00000000 </v>
   <v>       0.00019930      -0.00006380       0.00000000 </v>
  </varray>
  <varray name="stress" >
   <v>     -40.43239789       0.00000000       0.00000000 </v>
   <v>       0.00000000     -40.43333892       0.00000000 </v>
   <v>      -0.00000000       0.00000000     -40.43333892 </v>
  </varray>
  <energy>
   <i name="e_fr_energy">   -119.47475365 </i>
   <i name="e_wo_entrp">   -119.46100100 </i>
   <i name="e_0_energy">   -119.46787733 </i>
  </energy>
  <time name="totalsc">   54.69   55.63</time>
  <eigenvalues>
   <array>
    <dimension dim="1">band</dimension>
    <dimension dim="2">kpoint</dimension>
    <dimension dim="3">spin</dimension>
    <field>eigene</field>
    <field>occ</field>
    <set>
     <set comment="spin 1">
      <set comment="kpoint 1">
       <r>   -3.3289    1.0000 </r>
       <r>   -1.1668    1.0000 </r>
       <r>   -1.1631    1.0000 </r>
       <r>   -1.1631    1.0000 </r>
       <r>   -1.1631    1.0000 </r>
       <r>   -1.1631    1.0000 </r>
       <r>   -1.1595    1.0000 </r>
       <r>    0.9658    1.0000 </r>
       <r>    0.9702    1.0000 </r>
       <r>    0.9702    1.0000 </r>
       <r>    0.9718    1.0000 </r>
       <r>    0.9720    1.0000 </r>
       <r>    0.9720    1.0000 </r>
       <r>    0.9720    1.0000 </r>
       <r>    0.9720    1.0000 </r>
       <r>    0.9722    1.0000 </r>
       <r>    0.9738    1.0000 </r>
       <r>    0.9738    1.0000 </r>
       <r>    0.9782    1.0000 </r>
       <r>    3.0488    1.0000 </r>
       <r>    3.0489    1.0000 </r>
       <r>    3.0489    1.0000 </r>
       <r>    3.0489    1.0000 </r>
       <r>    3.1109    1.0000 </r>
       <r>    3.1109    1.0000 </r>
       <r>    3.1109    1.0000 </r>
       <r>    3.1111    1.0000 </r>
       <r>    4.6302    1.0000 </r>
       <r>    4.6302    1.0000 </r>
       <r>    4.6302    1.0000 </r>
       <r>    5.8186    1.0000 </r>
       <r>    5.8186    1.0000 </r>
       <r>    5.8186    1.0000 </r>
       <r>    6.6381    1.0000 </r>
       <r>    6.6381    1.0000 </r>
       <r>    6.6423    1.0000 </r>
       <r>    6.6423    1.0000 </r>
       <r>    6.6424    1.0000 </r>
       <r>    6.6424    1.0000 </r>
       <r>    6.6424    1.0000 </r>
       <r>    6.6424    1.0000 </r>
       <r>    6.6425    1.0000 </r>
       <r>    6.6425    1.0000 </r>
       <r>    6.6467    1.0000 </r>
       <r>    6.6467    1.0000 </r>
       <r>    7.6796    0.0000 </r>
       <r>    7.6837    0.0000 </r>
       <r>    7.6837    0.0000 </r>
       <r>    7.6837    0.0000 </r>
       <r>    7.6837    0.0000 </r>
       <r>    7.6877    0.0000 </r>
       <r>    8.2106    0.0000 </r>
       <r>    8.2116    0.0000 </r>
       <r>    8.2116    0.0000 </r>
       <r>    8.2116    0.0000 </r>
       <r>    8.2116    0.0000 </r>
       <r>    8.2125    0.0000 </r>
       <r>    8.6543    0.0000 </r>
       <r>    8.6543    0.0000 </r>
       <r>    8.6561    0.0000 </r>
       <r>    8.6582    0.0000 </r>
       <r>    8.6584    0.0000 </r>
       <r>    8.6584    0.0000 </r>
       <r>    8.6584    0.0000 </r>
       <r>    8.6584    0.0000 </r>
       <r>    8.6585    0.0000 </r>
       <r>    8.6607    0.0000 </r>
       <r>    8.6624    0.0000 </r>
       <r>    8.6624    0.0000 </r>
       <r>    9.9937    0.0000 </r>
       <r>    9.9947    0.0000 </r>
       <r>    9.9955    0.0000 </r>
      </set>
      <set comment="kpoint 2">
       <r>   -3.2948    1.0000 </r>
       <r>   -1.6679    1.0000 </r>
       <r>   -1.1295    1.0000 </r>
       <r>   -1.1295    1.0000 </r>
       <r>   -1.1295    1.0000 </r>
       <r>   -1.1295    1.0000 </r>
       <r>   -0.5933    1.0000 </r>
       <r>    0.4743    1.0000 </r>
       <r>    0.4743    1.0000 </r>
       <r>    0.4743    1.0000 </r>
       <r>    0.4743    1.0000 </r>
       <r>    1.0051    1.0000 </r>
       <r>    1.0051    1.0000 </r>
       <r>    1.0051    1.0000 </r>
       <r>    1.0051    1.0000 </r>
       <r>    1.5339    1.0000 </r>
       <r>    1.5339    1.0000 </r>
       <r>    1.5339    1.0000 </r>
       <r>    1.5339    1.0000 </r>
       <r>    2.5875    1.0000 </r>
       <r>    2.5875    1.0000 </r>
       <r>    2.5875    1.0000 </r>
       <r>    2.5875    1.0000 </r>
       <r>    3.6360    1.0000 </r>
       <r>    3.6360    1.0000 </r>
       <r>    3.6360    1.0000 </r>
       <r>    3.6360    1.0000 </r>
       <r>    4.0538    1.0000 </r>
       <r>    4.6616    1.0000 </r>
       <r>    4.6616    1.0000 </r>
       <r>    5.8520    1.0000 </r>
       <r>    5.8520    1.0000 </r>
       <r>    6.0960    1.0000 </r>
       <r>    6.0960    1.0000 </r>
       <r>    6.0960    1.0000 </r>
       <r>    6.0960    1.0000 </r>
       <r>    6.1702    1.0000 </r>
       <r>    6.1702    1.0000 </r>
       <r>    6.4547    1.0000 </r>
       <r>    6.6738    1.0000 </r>
       <r>    6.6738    1.0000 </r>
       <r>    6.6738    1.0000 </r>
       <r>    6.6738    1.0000 </r>
       <r>    7.1779    1.0000 </r>
       <r>    7.1779    1.0000 </r>
       <r>    7.3952    0.6383 </r>
       <r>    7.3952    0.6381 </r>
       <r>    7.9025    0.0000 </r>
       <r>    7.9025    0.0000 </r>
       <r>    7.9025    0.0000 </r>
       <r>    7.9025    0.0000 </r>
       <r>    8.1374    0.0000 </r>
       <r>    8.1374    0.0000 </r>
       <r>    8.1374    0.0000 </r>
       <r>    8.1375    0.0000 </r>
       <r>    8.1856    0.0000 </r>
       <r>    8.1856    0.0000 </r>
       <r>    8.1856    0.0000 </r>
       <r>    8.1856    0.0000 </r>
       <r>    8.5591    0.0000 </r>
       <r>    8.5591    0.0000 </r>
       <r>    8.6298    0.0000 </r>
       <r>    8.6298    0.0000 </r>
       <r>    8.6298    0.0000 </r>
       <r>    8.6298    0.0000 </r>
       <r>    9.1943    0.0000 </r>
       <r>    9.1943    0.0000 </r>
       <r>    9.1943    0.0000 </r>
       <r>    9.1943    0.0000 </r>
       <r>    9.5202    0.0000 </r>
       <r>    9.5202    0.0000 </r>
       <r>    9.5202    0.0000 </r>
      </set>
      <set comment="kpoint 3">
       <r>   -3.2948    1.0000 </r>
       <r>   -1.6678    1.0000 </r>
       <r>   -1.1323    1.0000 </r>
       <r>   -1.1295    1.0000 </r>
       <r>   -1.1295    1.0000 </r>
       <r>   -1.1267    1.0000 </r>
       <r>   -0.5933    1.0000 </r>
       <r>    0.4715    1.0000 </r>
       <r>    0.4743    1.0000 </r>
       <r>    0.4743    1.0000 </r>
       <r>    0.4771    1.0000 </r>
       <r>    1.0029    1.0000 </r>
       <r>    1.0040    1.0000 </r>
       <r>    1.0062    1.0000 </r>
       <r>    1.0073    1.0000 </r>
       <r>    1.5311    1.0000 </r>
       <r>    1.5339    1.0000 </r>
       <r>    1.5339    1.0000 </r>
       <r>    1.5368    1.0000 </r>
       <r>    2.5853    1.0000 </r>
       <r>    2.5864    1.0000 </r>
       <r>    2.5886    1.0000 </r>
       <r>    2.5897    1.0000 </r>
       <r>    3.6338    1.0000 </r>
       <r>    3.6349    1.0000 </r>
       <r>    3.6371    1.0000 </r>
       <r>    3.6382    1.0000 </r>
       <r>    4.0538    1.0000 </r>
       <r>    4.6616    1.0000 </r>
       <r>    4.6616    1.0000 </r>
       <r>    5.8520    1.0000 </r>
       <r>    5.8520    1.0000 </r>
       <r>    6.0929    1.0000 </r>
       <r>    6.0960    1.0000 </r>
       <r>    6.0960    1.0000 </r>
       <r>    6.0990    1.0000 </r>
       <r>    6.1702    1.0000 </r>
       <r>    6.1703    1.0000 </r>
       <r>    6.4546    1.0000 </r>
       <r>    6.6712    1.0000 </r>
       <r>    6.6738    1.0000 </r>
       <r>    6.6739    1.0000 </r>
       <r>    6.6765    1.0000 </r>
       <r>    7.1779    1.0000 </r>
       <r>    7.1779    1.0000 </r>
       <r>    7.3951    0.6384 </r>
       <r>    7.3952    0.6380 </r>
       <r>    7.9001    0.0000 </r>
       <r>    7.9025    0.0000 </r>
       <r>    7.9025    0.0000 </r>
       <r>    7.9049    0.0000 </r>
       <r>    8.1349    0.0000 </r>
       <r>    8.1363    0.0000 </r>
       <r>    8.1385    0.0000 </r>
       <r>    8.1400    0.0000 </r>
       <r>    8.1829    0.0000 </r>
       <r>    8.1856    0.0000 </r>
       <r>    8.1857    0.0000 </r>
       <r>    8.1883    0.0000 </r>
       <r>    8.5591    0.0000 </r>
       <r>    8.5591    0.0000 </r>
       <r>    8.6279    0.0000 </r>
       <r>    8.6298    0.0000 </r>
       <r>    8.6298    0.0000 </r>
       <r>    8.6316    0.0000 </r>
       <r>    9.1916    0.0000 </r>
       <r>    9.1943    0.0000 </r>
       <r>    9.1943    0.0000 </r>
       <r>    9.1970    0.0000 </r>
       <r>    9.5184    0.0000 </r>
       <r>    9.5202    0.0000 </r>
       <r>    9.5212    0.0000 </r>
      </set>
      <set comment="kpoint 4">
       <r>   -3.1926    1.0000 </r>
       <r>   -2.1067    1.0000 </r>
       <r>   -1.0288    1.0000 </r>
       <r>   -1.0288    1.0000 </r>
       <r>   -1.0288    1.0000 </r>
       <r>   -1.0288    1.0000 </r>
       <r>    0.0386    1.0000 </r>
       <r>    0.0416    1.0000 </r>
       <r>    0.0416    1.0000 </r>
       <r>    0.0416    1.0000 </r>
       <r>    0.0437    1.0000 </r>
       <r>    1.1045    1.0000 </r>
       <r>    1.1045    1.0000 </r>
       <r>    1.1045    1.0000 </r>
       <r>    1.1045    1.0000 </r>
       <r>    2.1565    1.0000 </r>
       <r>    2.1584    1.0000 </r>
       <r>    2.1584    1.0000 </r>
       <r>    2.1591    1.0000 </r>
       <r>    2.1607    1.0000 </r>
       <r>    2.1614    1.0000 </r>
       <r>    2.1614    1.0000 </r>
       <r>    2.1633    1.0000 </r>
       <r>    3.1753    1.0000 </r>
       <r>    4.2532    1.0000 </r>
       <r>    4.2532    1.0000 </r>
       <r>    4.2532    1.0000 </r>
       <r>    4.2532    1.0000 </r>
       <r>    4.7558    1.0000 </r>
       <r>    4.7558    1.0000 </r>
       <r>    5.2424    1.0000 </r>
       <r>    5.2424    1.0000 </r>
       <r>    5.2424    1.0000 </r>
       <r>    5.2424    1.0000 </r>
       <r>    5.7612    1.0000 </r>
       <r>    5.7612    1.0000 </r>
       <r>    5.9520    1.0000 </r>
       <r>    5.9520    1.0000 </r>
       <r>    6.7682    1.0000 </r>
       <r>    6.7682    1.0000 </r>
       <r>    6.7683    1.0000 </r>
       <r>    6.7683    1.0000 </r>
       <r>    6.9976    1.0000 </r>
       <r>    6.9976    1.0000 </r>
       <r>    7.2992    0.9989 </r>
       <r>    7.2992    0.9989 </r>
       <r>    7.2992    0.9989 </r>
       <r>    7.2992    0.9989 </r>
       <r>    7.5116    0.0016 </r>
       <r>    7.7741    0.0000 </r>
       <r>    7.7741    0.0000 </r>
       <r>    7.7760    0.0000 </r>
       <r>    7.7760    0.0000 </r>
       <r>    7.7787    0.0000 </r>
       <r>    7.7787    0.0000 </r>
       <r>    8.0531    0.0000 </r>
       <r>    8.0531    0.0000 </r>
       <r>    8.0531    0.0000 </r>
       <r>    8.0531    0.0000 </r>
       <r>    9.1049    0.0000 </r>
       <r>    9.1049    0.0000 </r>
       <r>    9.1050    0.0000 </r>
       <r>    9.1050    0.0000 </r>
       <r>    9.1328    0.0000 </r>
       <r>    9.1329    0.0000 </r>
       <r>    9.6043    0.0000 </r>
       <r>    9.6043    0.0000 </r>
       <r>    9.6043    0.0000 </r>
       <r>    9.6043    0.0000 </r>
       <r>    9.7934    0.0000 </r>
       <r>    9.7934    0.0000 </r>
       <r>    9.7934    0.0000 </r>
      </set>
      <set comment="kpoint 5">
       <r>   -3.1926    1.0000 </r>
       <r>   -2.1067    1.0000 </r>
       <r>   -1.0316    1.0000 </r>
       <r>   -1.0288    1.0000 </r>
       <r>   -1.0288    1.0000 </r>
       <r>   -1.0260    1.0000 </r>
       <r>    0.0386    1.0000 </r>
       <r>    0.0408    1.0000 </r>
       <r>    0.0416    1.0000 </r>
       <r>    0.0416    1.0000 </r>
       <r>    0.0445    1.0000 </r>
       <r>    1.1023    1.0000 </r>
       <r>    1.1034    1.0000 </r>
       <r>    1.1056    1.0000 </r>
       <r>    1.1067    1.0000 </r>
       <r>    2.1559    1.0000 </r>
       <r>    2.1587    1.0000 </r>
       <r>    2.1588    1.0000 </r>
       <r>    2.1591    1.0000 </r>
       <r>    2.1598    1.0000 </r>
       <r>    2.1615    1.0000 </r>
       <r>    2.1619    1.0000 </r>
       <r>    2.1634    1.0000 </r>
       <r>    3.1753    1.0000 </r>
       <r>    4.2510    1.0000 </r>
       <r>    4.2521    1.0000 </r>
       <r>    4.2544    1.0000 </r>
       <r>    4.2554    1.0000 </r>
       <r>    4.7558    1.0000 </r>
       <r>    4.7558    1.0000 </r>
       <r>    5.2394    1.0000 </r>
       <r>    5.2424    1.0000 </r>
       <r>    5.2424    1.0000 </r>
       <r>    5.2454    1.0000 </r>
       <r>    5.7612    1.0000 </r>
       <r>    5.7613    1.0000 </r>
       <r>    5.9520    1.0000 </r>
       <r>    5.9520    1.0000 </r>
       <r>    6.7656    1.0000 </r>
       <r>    6.7683    1.0000 </r>
       <r>    6.7683    1.0000 </r>
       <r>    6.7709    1.0000 </r>
       <r>    6.9976    1.0000 </r>
       <r>    6.9976    1.0000 </r>
       <r>    7.2969    0.9991 </r>
       <r>    7.2981    0.9990 </r>
       <r>    7.3004    0.9988 </r>
       <r>    7.3016    0.9986 </r>
       <r>    7.5116    0.0016 </r>
       <r>    7.7730    0.0000 </r>
       <r>    7.7760    0.0000 </r>
       <r>    7.7760    0.0000 </r>
       <r>    7.7766    0.0000 </r>
       <r>    7.7768    0.0000 </r>
       <r>    7.7792    0.0000 </r>
       <r>    8.0509    0.0000 </r>
       <r>    8.0531    0.0000 </r>
       <r>    8.0531    0.0000 </r>
       <r>    8.0553    0.0000 </r>
       <r>    9.1028    0.0000 </r>
       <r>    9.1050    0.0000 </r>
       <r>    9.1050    0.0000 </r>
       <r>    9.1071    0.0000 </r>
       <r>    9.1328    0.0000 </r>
       <r>    9.1328    0.0000 </r>
       <r>    9.6018    0.0000 </r>
       <r>    9.6042    0.0000 </r>
       <r>    9.6043    0.0000 </r>
       <r>    9.6067    0.0000 </r>
       <r>    9.7909    0.0000 </r>
       <r>    9.7934    0.0000 </r>
       <r>    9.7955    0.0000 </r>
      </set>
      <set comment="kpoint 6">
       <r>   -3.0224    1.0000 </r>
       <r>   -2.4791    1.0000 </r>
       <r>   -0.8611    1.0000 </r>
       <r>   -0.8611    1.0000 </r>
       <r>   -0.8611    1.0000 </r>
       <r>   -0.8611    1.0000 </r>
       <r>   -0.3255    1.0000 </r>
       <r>   -0.3255    1.0000 </r>
       <r>   -0.3255    1.0000 </r>
       <r>   -0.3255    1.0000 </r>
       <r>    0.7376    1.0000 </r>
       <r>    1.2700    1.0000 </r>
       <r>    1.2700    1.0000 </r>
       <r>    1.2700    1.0000 </r>
       <r>    1.2700    1.0000 </r>
       <r>    1.7984    1.0000 </r>
       <r>    1.7984    1.0000 </r>
       <r>    1.7984    1.0000 </r>
       <r>    1.7984    1.0000 </r>
       <r>    2.3109    1.0000 </r>
       <r>    2.8460    1.0000 </r>
       <r>    2.8460    1.0000 </r>
       <r>    2.8460    1.0000 </r>
       <r>    2.8461    1.0000 </r>
       <r>    4.3949    1.0000 </r>
       <r>    4.3949    1.0000 </r>
       <r>    4.3949    1.0000 </r>
       <r>    4.3949    1.0000 </r>
       <r>    4.9127    1.0000 </r>
       <r>    4.9127    1.0000 </r>
       <r>    4.9320    1.0000 </r>
       <r>    4.9320    1.0000 </r>
       <r>    4.9320    1.0000 </r>
       <r>    4.9320    1.0000 </r>
       <r>    5.4155    1.0000 </r>
       <r>    5.4155    1.0000 </r>
       <r>    6.1180    1.0000 </r>
       <r>    6.1180    1.0000 </r>
       <r>    6.4625    1.0000 </r>
       <r>    6.4625    1.0000 </r>
       <r>    6.4625    1.0000 </r>
       <r>    6.4625    1.0000 </r>
       <r>    6.6438    1.0000 </r>
       <r>    6.6439    1.0000 </r>
       <r>    6.9257    1.0000 </r>
       <r>    6.9257    1.0000 </r>
       <r>    6.9257    1.0000 </r>
       <r>    6.9257    1.0000 </r>
       <r>    7.4295    0.2688 </r>
       <r>    7.4295    0.2688 </r>
       <r>    7.4295    0.2688 </r>
       <r>    7.4295    0.2688 </r>
       <r>    8.2271    0.0000 </r>
       <r>    8.2271    0.0000 </r>
       <r>    8.2271    0.0000 </r>
       <r>    8.2271    0.0000 </r>
       <r>    8.4392    0.0000 </r>
       <r>    8.4392    0.0000 </r>
       <r>    8.6734    0.0000 </r>
       <r>    8.7507    0.0000 </r>
       <r>    8.7507    0.0000 </r>
       <r>    8.7507    0.0000 </r>
       <r>    8.7507    0.0000 </r>
       <r>    9.7763    0.0000 </r>
       <r>    9.7763    0.0000 </r>
       <r>    9.9546    0.0000 </r>
       <r>    9.9546    0.0000 </r>
       <r>   10.4556    0.0000 </r>
       <r>   10.4556    0.0000 </r>
       <r>   10.4556    0.0000 </r>
       <r>   10.4556    0.0000 </r>
       <r>   10.7282    0.0000 </r>
      </set>
      <set comment="kpoint 7">
       <r>   -3.0224    1.0000 </r>
       <r>   -2.4791    1.0000 </r>
       <r>   -0.8639    1.0000 </r>
       <r>   -0.8611    1.0000 </r>
       <r>   -0.8611    1.0000 </r>
       <r>   -0.8582    1.0000 </r>
       <r>   -0.3284    1.0000 </r>
       <r>   -0.3255    1.0000 </r>
       <r>   -0.3255    1.0000 </r>
       <r>   -0.3227    1.0000 </r>
       <r>    0.7376    1.0000 </r>
       <r>    1.2678    1.0000 </r>
       <r>    1.2689    1.0000 </r>
       <r>    1.2711    1.0000 </r>
       <r>    1.2722    1.0000 </r>
       <r>    1.7962    1.0000 </r>
       <r>    1.7973    1.0000 </r>
       <r>    1.7995    1.0000 </r>
       <r>    1.8006    1.0000 </r>
       <r>    2.3109    1.0000 </r>
       <r>    2.8432    1.0000 </r>
       <r>    2.8460    1.0000 </r>
       <r>    2.8460    1.0000 </r>
       <r>    2.8489    1.0000 </r>
       <r>    4.3919    1.0000 </r>
       <r>    4.3949    1.0000 </r>
       <r>    4.3949    1.0000 </r>
       <r>    4.3978    1.0000 </r>
       <r>    4.9126    1.0000 </r>
       <r>    4.9127    1.0000 </r>
       <r>    4.9298    1.0000 </r>
       <r>    4.9309    1.0000 </r>
       <r>    4.9331    1.0000 </r>
       <r>    4.9342    1.0000 </r>
       <r>    5.4154    1.0000 </r>
       <r>    5.4155    1.0000 </r>
       <r>    6.1180    1.0000 </r>
       <r>    6.1180    1.0000 </r>
       <r>    6.4602    1.0000 </r>
       <r>    6.4614    1.0000 </r>
       <r>    6.4636    1.0000 </r>
       <r>    6.4648    1.0000 </r>
       <r>    6.6438    1.0000 </r>
       <r>    6.6439    1.0000 </r>
       <r>    6.9230    1.0000 </r>
       <r>    6.9257    1.0000 </r>
       <r>    6.9257    1.0000 </r>
       <r>    6.9283    1.0000 </r>
       <r>    7.4268    0.2942 </r>
       <r>    7.4295    0.2688 </r>
       <r>    7.4295    0.2686 </r>
       <r>    7.4321    0.2443 </r>
       <r>    8.2250    0.0000 </r>
       <r>    8.2271    0.0000 </r>
       <r>    8.2271    0.0000 </r>
       <r>    8.2293    0.0000 </r>
       <r>    8.4391    0.0000 </r>
       <r>    8.4391    0.0000 </r>
       <r>    8.6735    0.0000 </r>
       <r>    8.7486    0.0000 </r>
       <r>    8.7507    0.0000 </r>
       <r>    8.7507    0.0000 </r>
       <r>    8.7528    0.0000 </r>
       <r>    9.7763    0.0000 </r>
       <r>    9.7763    0.0000 </r>
       <r>    9.9546    0.0000 </r>
       <r>    9.9546    0.0000 </r>
       <r>   10.4528    0.0000 </r>
       <r>   10.4556    0.0000 </r>
       <r>   10.4556    0.0000 </r>
       <r>   10.4583    0.0000 </r>
       <r>   10.7269    0.0000 </r>
      </set>
      <set comment="kpoint 8">
       <r>   -2.7859    1.0000 </r>
       <r>   -2.7830    1.0000 </r>
       <r>   -0.6305    1.0000 </r>
       <r>   -0.6274    1.0000 </r>
       <r>   -0.6274    1.0000 </r>
       <r>   -0.6267    1.0000 </r>
       <r>   -0.6264    1.0000 </r>
       <r>   -0.6257    1.0000 </r>
       <r>   -0.6257    1.0000 </r>
       <r>   -0.6226    1.0000 </r>
       <r>    1.4931    1.0000 </r>
       <r>    1.4956    1.0000 </r>
       <r>    1.4999    1.0000 </r>
       <r>    1.5001    1.0000 </r>
       <r>    1.5001    1.0000 </r>
       <r>    1.5009    1.0000 </r>
       <r>    1.5019    1.0000 </r>
       <r>    1.5027    1.0000 </r>
       <r>    1.5027    1.0000 </r>
       <r>    1.5051    1.0000 </r>
       <r>    3.5916    1.0000 </r>
       <r>    3.5919    1.0000 </r>
       <r>    3.5919    1.0000 </r>
       <r>    3.5926    1.0000 </r>
       <r>    3.5929    1.0000 </r>
       <r>    3.5935    1.0000 </r>
       <r>    3.5935    1.0000 </r>
       <r>    3.5938    1.0000 </r>
       <r>    5.1311    1.0000 </r>
       <r>    5.1311    1.0000 </r>
       <r>    5.1342    1.0000 </r>
       <r>    5.1342    1.0000 </r>
       <r>    5.6687    1.0000 </r>
       <r>    5.6687    1.0000 </r>
       <r>    5.6693    1.0000 </r>
       <r>    5.6695    1.0000 </r>
       <r>    5.6701    1.0000 </r>
       <r>    5.6703    1.0000 </r>
       <r>    5.6709    1.0000 </r>
       <r>    5.6709    1.0000 </r>
       <r>    6.3474    1.0000 </r>
       <r>    6.3483    1.0000 </r>
       <r>    6.3502    1.0000 </r>
       <r>    6.3512    1.0000 </r>
       <r>    7.1437    1.0000 </r>
       <r>    7.1437    1.0000 </r>
       <r>    7.1447    1.0000 </r>
       <r>    7.1459    1.0000 </r>
       <r>    7.1462    1.0000 </r>
       <r>    7.1474    1.0000 </r>
       <r>    7.1484    1.0000 </r>
       <r>    7.1484    1.0000 </r>
       <r>    8.4559    0.0000 </r>
       <r>    8.4570    0.0000 </r>
       <r>    8.4570    0.0000 </r>
       <r>    8.4571    0.0000 </r>
       <r>    8.4592    0.0000 </r>
       <r>    8.4594    0.0000 </r>
       <r>    8.4594    0.0000 </r>
       <r>    8.4605    0.0000 </r>
       <r>    9.1639    0.0000 </r>
       <r>    9.1639    0.0000 </r>
       <r>    9.1662    0.0000 </r>
       <r>    9.1662    0.0000 </r>
       <r>    9.9039    0.0000 </r>
       <r>    9.9054    0.0000 </r>
       <r>   10.4658    0.0000 </r>
       <r>   10.4664    0.0000 </r>
       <r>   10.4676    0.0000 </r>
       <r>   10.4682    0.0000 </r>
       <r>   11.1799    0.0000 </r>
       <r>   11.1813    0.0000 </r>
      </set>
      <set comment="kpoint 9">
       <r>   -2.7844    1.0000 </r>
       <r>   -2.7844    1.0000 </r>
       <r>   -0.6317    1.0000 </r>
       <r>   -0.6271    1.0000 </r>
       <r>   -0.6265    1.0000 </r>
       <r>   -0.6265    1.0000 </r>
       <r>   -0.6265    1.0000 </r>
       <r>   -0.6265    1.0000 </r>
       <r>   -0.6260    1.0000 </r>
       <r>   -0.6214    1.0000 </r>
       <r>    1.4940    1.0000 </r>
       <r>    1.4953    1.0000 </r>
       <r>    1.4986    1.0000 </r>
       <r>    1.4994    1.0000 </r>
       <r>    1.5009    1.0000 </r>
       <r>    1.5012    1.0000 </r>
       <r>    1.5016    1.0000 </r>
       <r>    1.5020    1.0000 </r>
       <r>    1.5034    1.0000 </r>
       <r>    1.5056    1.0000 </r>
       <r>    3.5896    1.0000 </r>
       <r>    3.5900    1.0000 </r>
       <r>    3.5927    1.0000 </r>
       <r>    3.5927    1.0000 </r>
       <r>    3.5927    1.0000 </r>
       <r>    3.5927    1.0000 </r>
       <r>    3.5954    1.0000 </r>
       <r>    3.5958    1.0000 </r>
       <r>    5.1326    1.0000 </r>
       <r>    5.1326    1.0000 </r>
       <r>    5.1326    1.0000 </r>
       <r>    5.1326    1.0000 </r>
       <r>    5.6669    1.0000 </r>
       <r>    5.6682    1.0000 </r>
       <r>    5.6685    1.0000 </r>
       <r>    5.6689    1.0000 </r>
       <r>    5.6708    1.0000 </r>
       <r>    5.6711    1.0000 </r>
       <r>    5.6715    1.0000 </r>
       <r>    5.6727    1.0000 </r>
       <r>    6.3492    1.0000 </r>
       <r>    6.3493    1.0000 </r>
       <r>    6.3493    1.0000 </r>
       <r>    6.3493    1.0000 </r>
       <r>    7.1411    1.0000 </r>
       <r>    7.1456    1.0000 </r>
       <r>    7.1460    1.0000 </r>
       <r>    7.1460    1.0000 </r>
       <r>    7.1460    1.0000 </r>
       <r>    7.1461    1.0000 </r>
       <r>    7.1465    1.0000 </r>
       <r>    7.1509    1.0000 </r>
       <r>    8.4543    0.0000 </r>
       <r>    8.4577    0.0000 </r>
       <r>    8.4582    0.0000 </r>
       <r>    8.4582    0.0000 </r>
       <r>    8.4582    0.0000 </r>
       <r>    8.4582    0.0000 </r>
       <r>    8.4586    0.0000 </r>
       <r>    8.4620    0.0000 </r>
       <r>    9.1651    0.0000 </r>
       <r>    9.1651    0.0000 </r>
       <r>    9.1651    0.0000 </r>
       <r>    9.1651    0.0000 </r>
       <r>    9.9047    0.0000 </r>
       <r>    9.9047    0.0000 </r>
       <r>   10.4670    0.0000 </r>
       <r>   10.4670    0.0000 </r>
       <r>   10.4670    0.0000 </r>
       <r>   10.4670    0.0000 </r>
       <r>   11.1802    0.0000 </r>
       <r>   11.1807    0.0000 </r>
      </set>
      <set comment="kpoint 10">
       <r>   -3.2607    1.0000 </r>
       <r>   -1.6353    1.0000 </r>
       <r>   -1.6330    1.0000 </r>
       <r>   -1.0959    1.0000 </r>
       <r>   -1.0959    1.0000 </r>
       <r>   -0.5610    1.0000 </r>
       <r>   -0.5587    1.0000 </r>
       <r>   -0.0250    1.0000 </r>
       <r>    0.5059    1.0000 </r>
       <r>    0.5068    1.0000 </r>
       <r>    0.5082    1.0000 </r>
       <r>    0.5092    1.0000 </r>
       <r>    1.0375    1.0000 </r>
       <r>    1.0386    1.0000 </r>
       <r>    1.5653    1.0000 </r>
       <r>    1.5662    1.0000 </r>
       <r>    1.5676    1.0000 </r>
       <r>    1.5686    1.0000 </r>
       <r>    2.0936    1.0000 </r>
       <r>    2.0951    1.0000 </r>
       <r>    2.0952    1.0000 </r>
       <r>    3.1122    1.0000 </r>
       <r>    3.1122    1.0000 </r>
       <r>    3.1780    1.0000 </r>
       <r>    3.1780    1.0000 </r>
       <r>    4.0854    1.0000 </r>
       <r>    4.0863    1.0000 </r>
       <r>    4.1888    1.0000 </r>
       <r>    4.1888    1.0000 </r>
       <r>    4.6930    1.0000 </r>
       <r>    5.6188    1.0000 </r>
       <r>    5.6212    1.0000 </r>
       <r>    5.8853    1.0000 </r>
       <r>    6.0788    1.0000 </r>
       <r>    6.0788    1.0000 </r>
       <r>    6.1827    1.0000 </r>
       <r>    6.1828    1.0000 </r>
       <r>    6.2004    1.0000 </r>
       <r>    6.2030    1.0000 </r>
       <r>    6.4868    1.0000 </r>
       <r>    6.4878    1.0000 </r>
       <r>    6.6276    1.0000 </r>
       <r>    6.6291    1.0000 </r>
       <r>    7.2080    1.0000 </r>
       <r>    7.2106    1.0000 </r>
       <r>    7.4731    0.0321 </r>
       <r>    7.4749    0.0286 </r>
       <r>    7.6600    0.0000 </r>
       <r>    7.6610    0.0000 </r>
       <r>    7.6624    0.0000 </r>
       <r>    7.6634    0.0000 </r>
       <r>    7.7129    0.0000 </r>
       <r>    7.9650    0.0000 </r>
       <r>    7.9672    0.0000 </r>
       <r>    8.3743    0.0000 </r>
       <r>    8.3743    0.0000 </r>
       <r>    8.6288    0.0000 </r>
       <r>    8.6296    0.0000 </r>
       <r>    8.6746    0.0000 </r>
       <r>    8.6755    0.0000 </r>
       <r>    8.6757    0.0000 </r>
       <r>    8.6768    0.0000 </r>
       <r>    8.7206    0.0000 </r>
       <r>    8.7224    0.0000 </r>
       <r>    8.7883    0.0000 </r>
       <r>    8.7883    0.0000 </r>
       <r>    9.0427    0.0000 </r>
       <r>    9.1189    0.0000 </r>
       <r>    9.1209    0.0000 </r>
       <r>    9.7301    0.0000 </r>
       <r>   10.0558    0.0000 </r>
       <r>   10.0632    0.0000 </r>
      </set>
      <set comment="kpoint 11">
       <r>   -3.2607    1.0000 </r>
       <r>   -1.6341    1.0000 </r>
       <r>   -1.6341    1.0000 </r>
       <r>   -1.0976    1.0000 </r>
       <r>   -1.0943    1.0000 </r>
       <r>   -0.5598    1.0000 </r>
       <r>   -0.5598    1.0000 </r>
       <r>   -0.0250    1.0000 </r>
       <r>    0.5049    1.0000 </r>
       <r>    0.5069    1.0000 </r>
       <r>    0.5082    1.0000 </r>
       <r>    0.5102    1.0000 </r>
       <r>    1.0380    1.0000 </r>
       <r>    1.0380    1.0000 </r>
       <r>    1.5643    1.0000 </r>
       <r>    1.5663    1.0000 </r>
       <r>    1.5676    1.0000 </r>
       <r>    1.5696    1.0000 </r>
       <r>    2.0933    1.0000 </r>
       <r>    2.0938    1.0000 </r>
       <r>    2.0967    1.0000 </r>
       <r>    3.1122    1.0000 </r>
       <r>    3.1122    1.0000 </r>
       <r>    3.1780    1.0000 </r>
       <r>    3.1780    1.0000 </r>
       <r>    4.0858    1.0000 </r>
       <r>    4.0858    1.0000 </r>
       <r>    4.1871    1.0000 </r>
       <r>    4.1904    1.0000 </r>
       <r>    4.6930    1.0000 </r>
       <r>    5.6200    1.0000 </r>
       <r>    5.6200    1.0000 </r>
       <r>    5.8853    1.0000 </r>
       <r>    6.0788    1.0000 </r>
       <r>    6.0788    1.0000 </r>
       <r>    6.1827    1.0000 </r>
       <r>    6.1828    1.0000 </r>
       <r>    6.2016    1.0000 </r>
       <r>    6.2018    1.0000 </r>
       <r>    6.4873    1.0000 </r>
       <r>    6.4873    1.0000 </r>
       <r>    6.6283    1.0000 </r>
       <r>    6.6283    1.0000 </r>
       <r>    7.2093    1.0000 </r>
       <r>    7.2094    1.0000 </r>
       <r>    7.4740    0.0303 </r>
       <r>    7.4740    0.0303 </r>
       <r>    7.6588    0.0000 </r>
       <r>    7.6609    0.0000 </r>
       <r>    7.6625    0.0000 </r>
       <r>    7.6645    0.0000 </r>
       <r>    7.7129    0.0000 </r>
       <r>    7.9661    0.0000 </r>
       <r>    7.9661    0.0000 </r>
       <r>    8.3743    0.0000 </r>
       <r>    8.3743    0.0000 </r>
       <r>    8.6292    0.0000 </r>
       <r>    8.6292    0.0000 </r>
       <r>    8.6735    0.0000 </r>
       <r>    8.6742    0.0000 </r>
       <r>    8.6772    0.0000 </r>
       <r>    8.6778    0.0000 </r>
       <r>    8.7215    0.0000 </r>
       <r>    8.7216    0.0000 </r>
       <r>    8.7883    0.0000 </r>
       <r>    8.7883    0.0000 </r>
       <r>    9.0427    0.0000 </r>
       <r>    9.1199    0.0000 </r>
       <r>    9.1199    0.0000 </r>
       <r>    9.7301    0.0000 </r>
       <r>   10.0569    0.0000 </r>
       <r>   10.0600    0.0000 </r>
      </set>
      <set comment="kpoint 12">
       <r>   -3.1585    1.0000 </r>
       <r>   -2.0729    1.0000 </r>
       <r>   -1.5331    1.0000 </r>
       <r>   -0.9952    1.0000 </r>
       <r>   -0.9952    1.0000 </r>
       <r>   -0.4599    1.0000 </r>
       <r>   -0.4587    1.0000 </r>
       <r>    0.0726    1.0000 </r>
       <r>    0.0749    1.0000 </r>
       <r>    0.0763    1.0000 </r>
       <r>    0.6064    1.0000 </r>
       <r>    0.6072    1.0000 </r>
       <r>    0.6077    1.0000 </r>
       <r>    1.6638    1.0000 </r>
       <r>    1.6658    1.0000 </r>
       <r>    1.6659    1.0000 </r>
       <r>    1.6669    1.0000 </r>
       <r>    1.6682    1.0000 </r>
       <r>    2.1919    1.0000 </r>
       <r>    2.1920    1.0000 </r>
       <r>    2.7154    1.0000 </r>
       <r>    2.7181    1.0000 </r>
       <r>    2.7193    1.0000 </r>
       <r>    3.2078    1.0000 </r>
       <r>    3.7657    1.0000 </r>
       <r>    3.7657    1.0000 </r>
       <r>    4.1820    1.0000 </r>
       <r>    4.7608    1.0000 </r>
       <r>    4.7871    1.0000 </r>
       <r>    4.8043    1.0000 </r>
       <r>    4.8043    1.0000 </r>
       <r>    5.2057    1.0000 </r>
       <r>    5.2731    1.0000 </r>
       <r>    5.2731    1.0000 </r>
       <r>    5.7847    1.0000 </r>
       <r>    5.7927    1.0000 </r>
       <r>    5.9852    1.0000 </r>
       <r>    6.2317    1.0000 </r>
       <r>    6.2318    1.0000 </r>
       <r>    6.2960    1.0000 </r>
       <r>    6.5851    1.0000 </r>
       <r>    6.8203    1.0000 </r>
       <r>    6.8203    1.0000 </r>
       <r>    6.9891    1.0000 </r>
       <r>    7.2487    1.0000 </r>
       <r>    7.2487    1.0000 </r>
       <r>    7.3026    0.9985 </r>
       <r>    7.3027    0.9985 </r>
       <r>    7.3044    0.9983 </r>
       <r>    7.5437    0.0001 </r>
       <r>    7.5813    0.0000 </r>
       <r>    7.6060    0.0000 </r>
       <r>    7.8082    0.0000 </r>
       <r>    7.8405    0.0000 </r>
       <r>    7.8405    0.0000 </r>
       <r>    8.3118    0.0000 </r>
       <r>    8.5440    0.0000 </r>
       <r>    8.6252    0.0000 </r>
       <r>    8.6394    0.0000 </r>
       <r>    8.6394    0.0000 </r>
       <r>    9.1708    0.0000 </r>
       <r>    9.1829    0.0000 </r>
       <r>    9.2757    0.0000 </r>
       <r>    9.2757    0.0000 </r>
       <r>    9.3207    0.0000 </r>
       <r>    9.6424    0.0000 </r>
       <r>    9.6457    0.0000 </r>
       <r>    9.6458    0.0000 </r>
       <r>    9.6893    0.0000 </r>
       <r>    9.6894    0.0000 </r>
       <r>    9.7048    0.0000 </r>
       <r>   10.1258    0.0000 </r>
      </set>
      <set comment="kpoint 13">
       <r>   -3.1585    1.0000 </r>
       <r>   -2.0729    1.0000 </r>
       <r>   -1.5331    1.0000 </r>
       <r>   -0.9969    1.0000 </r>
       <r>   -0.9936    1.0000 </r>
       <r>   -0.4595    1.0000 </r>
       <r>   -0.4592    1.0000 </r>
       <r>    0.0729    1.0000 </r>
       <r>    0.0742    1.0000 </r>
       <r>    0.0767    1.0000 </r>
       <r>    0.6054    1.0000 </r>
       <r>    0.6070    1.0000 </r>
       <r>    0.6090    1.0000 </r>
       <r>    1.6638    1.0000 </r>
       <r>    1.6650    1.0000 </r>
       <r>    1.6656    1.0000 </r>
       <r>    1.6675    1.0000 </r>
       <r>    1.6687    1.0000 </r>
       <r>    2.1903    1.0000 </r>
       <r>    2.1936    1.0000 </r>
       <r>    2.7159    1.0000 </r>
       <r>    2.7170    1.0000 </r>
       <r>    2.7199    1.0000 </r>
       <r>    3.2078    1.0000 </r>
       <r>    3.7641    1.0000 </r>
       <r>    3.7674    1.0000 </r>
       <r>    4.1820    1.0000 </r>
       <r>    4.7607    1.0000 </r>
       <r>    4.7871    1.0000 </r>
       <r>    4.8027    1.0000 </r>
       <r>    4.8060    1.0000 </r>
       <r>    5.2057    1.0000 </r>
       <r>    5.2714    1.0000 </r>
       <r>    5.2748    1.0000 </r>
       <r>    5.7845    1.0000 </r>
       <r>    5.7929    1.0000 </r>
       <r>    5.9852    1.0000 </r>
       <r>    6.2300    1.0000 </r>
       <r>    6.2335    1.0000 </r>
       <r>    6.2960    1.0000 </r>
       <r>    6.5851    1.0000 </r>
       <r>    6.8186    1.0000 </r>
       <r>    6.8221    1.0000 </r>
       <r>    6.9890    1.0000 </r>
       <r>    7.2469    1.0000 </r>
       <r>    7.2505    1.0000 </r>
       <r>    7.3020    0.9986 </r>
       <r>    7.3034    0.9984 </r>
       <r>    7.3043    0.9983 </r>
       <r>    7.5437    0.0001 </r>
       <r>    7.5813    0.0000 </r>
       <r>    7.6060    0.0000 </r>
       <r>    7.8083    0.0000 </r>
       <r>    7.8388    0.0000 </r>
       <r>    7.8423    0.0000 </r>
       <r>    8.3118    0.0000 </r>
       <r>    8.5440    0.0000 </r>
       <r>    8.6251    0.0000 </r>
       <r>    8.6380    0.0000 </r>
       <r>    8.6408    0.0000 </r>
       <r>    9.1708    0.0000 </r>
       <r>    9.1829    0.0000 </r>
       <r>    9.2738    0.0000 </r>
       <r>    9.2775    0.0000 </r>
       <r>    9.3207    0.0000 </r>
       <r>    9.6424    0.0000 </r>
       <r>    9.6443    0.0000 </r>
       <r>    9.6472    0.0000 </r>
       <r>    9.6879    0.0000 </r>
       <r>    9.6910    0.0000 </r>
       <r>    9.7047    0.0000 </r>
       <r>   10.1258    0.0000 </r>
      </set>
      <set comment="kpoint 14">
       <r>   -3.1585    1.0000 </r>
       <r>   -2.0729    1.0000 </r>
       <r>   -1.5331    1.0000 </r>
       <r>   -0.9952    1.0000 </r>
       <r>   -0.9952    1.0000 </r>
       <r>   -0.4606    1.0000 </r>
       <r>   -0.4580    1.0000 </r>
       <r>    0.0740    1.0000 </r>
       <r>    0.0749    1.0000 </r>
       <r>    0.0749    1.0000 </r>
       <r>    0.6056    1.0000 </r>
       <r>    0.6072    1.0000 </r>
       <r>    0.6085    1.0000 </r>
       <r>    1.6637    1.0000 </r>
       <r>    1.6654    1.0000 </r>
       <r>    1.6659    1.0000 </r>
       <r>    1.6673    1.0000 </r>
       <r>    1.6683    1.0000 </r>
       <r>    2.1919    1.0000 </r>
       <r>    2.1919    1.0000 </r>
       <r>    2.7166    1.0000 </r>
       <r>    2.7181    1.0000 </r>
       <r>    2.7181    1.0000 </r>
       <r>    3.2078    1.0000 </r>
       <r>    3.7657    1.0000 </r>
       <r>    3.7657    1.0000 </r>
       <r>    4.1820    1.0000 </r>
       <r>    4.7607    1.0000 </r>
       <r>    4.7871    1.0000 </r>
       <r>    4.8043    1.0000 </r>
       <r>    4.8043    1.0000 </r>
       <r>    5.2057    1.0000 </r>
       <r>    5.2731    1.0000 </r>
       <r>    5.2731    1.0000 </r>
       <r>    5.7847    1.0000 </r>
       <r>    5.7927    1.0000 </r>
       <r>    5.9852    1.0000 </r>
       <r>    6.2317    1.0000 </r>
       <r>    6.2318    1.0000 </r>
       <r>    6.2960    1.0000 </r>
       <r>    6.5851    1.0000 </r>
       <r>    6.8203    1.0000 </r>
       <r>    6.8203    1.0000 </r>
       <r>    6.9891    1.0000 </r>
       <r>    7.2487    1.0000 </r>
       <r>    7.2487    1.0000 </r>
       <r>    7.3020    0.9986 </r>
       <r>    7.3025    0.9985 </r>
       <r>    7.3052    0.9981 </r>
       <r>    7.5437    0.0001 </r>
       <r>    7.5813    0.0000 </r>
       <r>    7.6060    0.0000 </r>
       <r>    7.8082    0.0000 </r>
       <r>    7.8405    0.0000 </r>
       <r>    7.8405    0.0000 </r>
       <r>    8.3118    0.0000 </r>
       <r>    8.5440    0.0000 </r>
       <r>    8.6252    0.0000 </r>
       <r>    8.6394    0.0000 </r>
       <r>    8.6394    0.0000 </r>
       <r>    9.1708    0.0000 </r>
       <r>    9.1829    0.0000 </r>
       <r>    9.2757    0.0000 </r>
       <r>    9.2757    0.0000 </r>
       <r>    9.3207    0.0000 </r>
       <r>    9.6424    0.0000 </r>
       <r>    9.6457    0.0000 </r>
       <r>    9.6458    0.0000 </r>
       <r>    9.6895    0.0000 </r>
       <r>    9.6895    0.0000 </r>
       <r>    9.7047    0.0000 </r>
       <r>   10.1259    0.0000 </r>
      </set>
      <set comment="kpoint 15">
       <r>   -2.9884    1.0000 </r>
       <r>   -2.4452    1.0000 </r>
       <r>   -1.3648    1.0000 </r>
       <r>   -0.8289    1.0000 </r>
       <r>   -0.8275    1.0000 </r>
       <r>   -0.8262    1.0000 </r>
       <r>   -0.2936    1.0000 </r>
       <r>   -0.2921    1.0000 </r>
       <r>   -0.2909    1.0000 </r>
       <r>    0.2412    1.0000 </r>
       <r>    0.7701    1.0000 </r>
       <r>    0.7732    1.0000 </r>
       <r>    0.7738    1.0000 </r>
       <r>    1.3033    1.0000 </r>
       <r>    1.3033    1.0000 </r>
       <r>    1.8308    1.0000 </r>
       <r>    1.8309    1.0000 </r>
       <r>    2.3435    1.0000 </r>
       <r>    2.3545    1.0000 </r>
       <r>    2.3574    1.0000 </r>
       <r>    2.3576    1.0000 </r>
       <r>    2.8788    1.0000 </r>
       <r>    2.8788    1.0000 </r>
       <r>    3.4010    1.0000 </r>
       <r>    3.9091    1.0000 </r>
       <r>    4.3423    1.0000 </r>
       <r>    4.4269    1.0000 </r>
       <r>    4.4270    1.0000 </r>
       <r>    4.4461    1.0000 </r>
       <r>    4.4461    1.0000 </r>
       <r>    4.8544    1.0000 </r>
       <r>    4.9428    1.0000 </r>
       <r>    4.9442    1.0000 </r>
       <r>    5.4468    1.0000 </r>
       <r>    5.4810    1.0000 </r>
       <r>    5.4810    1.0000 </r>
       <r>    5.9809    1.0000 </r>
       <r>    5.9809    1.0000 </r>
       <r>    6.1509    1.0000 </r>
       <r>    6.3899    1.0000 </r>
       <r>    6.3899    1.0000 </r>
       <r>    6.4533    1.0000 </r>
       <r>    6.6729    1.0000 </r>
       <r>    6.7476    1.0000 </r>
       <r>    6.8989    1.0000 </r>
       <r>    6.8989    1.0000 </r>
       <r>    6.9569    1.0000 </r>
       <r>    7.0066    1.0000 </r>
       <r>    7.0066    1.0000 </r>
       <r>    7.2621    1.0000 </r>
       <r>    7.4613    0.0648 </r>
       <r>    7.7472    0.0000 </r>
       <r>    7.9254    0.0000 </r>
       <r>    7.9652    0.0000 </r>
       <r>    8.2694    0.0000 </r>
       <r>    8.4706    0.0000 </r>
       <r>    8.7050    0.0000 </r>
       <r>    8.7601    0.0000 </r>
       <r>    8.8192    0.0000 </r>
       <r>    8.8192    0.0000 </r>
       <r>    9.2897    0.0000 </r>
       <r>    9.3386    0.0000 </r>
       <r>    9.3386    0.0000 </r>
       <r>    9.4268    0.0000 </r>
       <r>    9.8099    0.0000 </r>
       <r>    9.9367    0.0000 </r>
       <r>    9.9367    0.0000 </r>
       <r>    9.9829    0.0000 </r>
       <r>    9.9864    0.0000 </r>
       <r>   10.2709    0.0000 </r>
       <r>   10.3481    0.0000 </r>
       <r>   10.7616    0.0000 </r>
      </set>
      <set comment="kpoint 16">
       <r>   -2.9884    1.0000 </r>
       <r>   -2.4452    1.0000 </r>
       <r>   -1.3648    1.0000 </r>
       <r>   -0.8297    1.0000 </r>
       <r>   -0.8275    1.0000 </r>
       <r>   -0.8254    1.0000 </r>
       <r>   -0.2943    1.0000 </r>
       <r>   -0.2923    1.0000 </r>
       <r>   -0.2900    1.0000 </r>
       <r>    0.2412    1.0000 </r>
       <r>    0.7700    1.0000 </r>
       <r>    0.7721    1.0000 </r>
       <r>    0.7751    1.0000 </r>
       <r>    1.3016    1.0000 </r>
       <r>    1.3049    1.0000 </r>
       <r>    1.8292    1.0000 </r>
       <r>    1.8325    1.0000 </r>
       <r>    2.3435    1.0000 </r>
       <r>    2.3545    1.0000 </r>
       <r>    2.3558    1.0000 </r>
       <r>    2.3591    1.0000 </r>
       <r>    2.8771    1.0000 </r>
       <r>    2.8804    1.0000 </r>
       <r>    3.4009    1.0000 </r>
       <r>    3.9091    1.0000 </r>
       <r>    4.3423    1.0000 </r>
       <r>    4.4253    1.0000 </r>
       <r>    4.4286    1.0000 </r>
       <r>    4.4444    1.0000 </r>
       <r>    4.4477    1.0000 </r>
       <r>    4.8544    1.0000 </r>
       <r>    4.9426    1.0000 </r>
       <r>    4.9443    1.0000 </r>
       <r>    5.4469    1.0000 </r>
       <r>    5.4793    1.0000 </r>
       <r>    5.4827    1.0000 </r>
       <r>    5.9792    1.0000 </r>
       <r>    5.9826    1.0000 </r>
       <r>    6.1509    1.0000 </r>
       <r>    6.3881    1.0000 </r>
       <r>    6.3917    1.0000 </r>
       <r>    6.4533    1.0000 </r>
       <r>    6.6729    1.0000 </r>
       <r>    6.7476    1.0000 </r>
       <r>    6.8971    1.0000 </r>
       <r>    6.9007    1.0000 </r>
[...]
       <r>    2.5477    1.0000 </r>
       <r>    2.5477    1.0000 </r>
       <r>    2.5477    1.0000 </r>
       <r>    2.5477    1.0000 </r>
       <r>    2.5478    1.0000 </r>
       <r>    2.5478    1.0000 </r>
       <r>    2.5479    1.0000 </r>
       <r>    2.5479    1.0000 </r>
       <r>    2.5479    1.0000 </r>
       <r>    2.5479    1.0000 </r>
       <r>    2.5483    1.0000 </r>
       <r>    2.5483    1.0000 </r>
       <r>    2.5485    1.0000 </r>
       <r>    2.5517    1.0000 </r>
       <r>    2.5517    1.0000 </r>
       <r>    2.5580    1.0000 </r>
       <r>    6.6817    1.0000 </r>
       <r>    6.6817    1.0000 </r>
       <r>    6.6835    1.0000 </r>
       <r>    6.6854    1.0000 </r>
       <r>    6.6868    1.0000 </r>
       <r>    6.6872    1.0000 </r>
       <r>    6.6872    1.0000 </r>
       <r>    6.6872    1.0000 </r>
       <r>    6.6874    1.0000 </r>
       <r>    6.6875    1.0000 </r>
       <r>    6.6875    1.0000 </r>
       <r>    6.6875    1.0000 </r>
       <r>    6.6876    1.0000 </r>
       <r>    6.6876    1.0000 </r>
       <r>    6.6876    1.0000 </r>
       <r>    6.6876    1.0000 </r>
       <r>    6.6878    1.0000 </r>
       <r>    6.6878    1.0000 </r>
       <r>    6.6879    1.0000 </r>
       <r>    6.6882    1.0000 </r>
       <r>    6.6896    1.0000 </r>
       <r>    6.6916    1.0000 </r>
       <r>    6.6934    1.0000 </r>
       <r>    6.6934    1.0000 </r>
       <r>   10.7378    0.0000 </r>
       <r>   10.7378    0.0000 </r>
       <r>   10.7379    0.0000 </r>
       <r>   10.7384    0.0000 </r>
       <r>   10.7398    0.0000 </r>
       <r>   10.7405    0.0000 </r>
       <r>   10.7406    0.0000 </r>
       <r>   10.7406    0.0000 </r>
       <r>   10.9205    0.0000 </r>
       <r>   10.9215    0.0000 </r>
       <r>   10.9219    0.0000 </r>
       <r>   10.9227    0.0000 </r>
       <r>   10.9231    0.0000 </r>
       <r>   10.9233    0.0000 </r>
       <r>   10.9236    0.0000 </r>
       <r>   10.9241    0.0000 </r>
      </set>
     </set>
    </set>
   </array>
  </eigenvalues>
  <separator name="orbital magnetization" >
   <v name="MAGDIPOLOUT">      0.00000000      0.00000000      0.00000000</v>
  </separator>
  <dos>
   <i name="efermi">      7.40766897 </i>
   <total>
    <array>
     <dimension dim="1">gridpoints</dimension>
     <dimension dim="2">spin</dimension>
     <field>energy</field>
     <field>total</field>
     <field>integrated</field>
     <set>
      <set comment="spin 1">
       <r>    -4.0544     0.0000     0.0000 </r>
       <r>    -4.0012     0.0000     0.0000 </r>
       <r>    -3.9480     0.0000     0.0000 </r>
       <r>    -3.8948     0.0000     0.0000 </r>
       <r>    -3.8415     0.0000     0.0000 </r>
       <r>    -3.7883     0.0000     0.0000 </r>
       <r>    -3.7351     0.0000     0.0000 </r>
       <r>    -3.6819     0.0000     0.0000 </r>
       <r>    -3.6287     0.0000     0.0000 </r>
       <r>    -3.5755     0.0000     0.0000 </r>
       <r>    -3.5223     0.0000     0.0000 </r>
       <r>    -3.4691     0.0000     0.0000 </r>
       <r>    -3.4159     0.0006     0.0000 </r>
       <r>    -3.3627     0.0256     0.0014 </r>
       <r>    -3.3095     0.2545     0.0149 </r>
       <r>    -3.2563     0.7938     0.0572 </r>
       <r>    -3.2031     1.0861     0.1150 </r>
       <r>    -3.1499     1.6732     0.2040 </r>
       <r>    -3.0967     1.8136     0.3005 </r>
       <r>    -3.0435     1.5673     0.3839 </r>
       <r>    -2.9903     2.5213     0.5180 </r>
       <r>    -2.9371     2.4711     0.6495 </r>
       <r>    -2.8839     2.3930     0.7768 </r>
       <r>    -2.8307     2.8587     0.9289 </r>
       <r>    -2.7775     2.0662     1.0388 </r>
       <r>    -2.7243     3.3758     1.2184 </r>
       <r>    -2.6711     3.6053     1.4102 </r>
       <r>    -2.6179     3.5508     1.5992 </r>
       <r>    -2.5647     3.0734     1.7627 </r>
       <r>    -2.5115     2.1422     1.8766 </r>
       <r>    -2.4583     3.9231     2.0854 </r>
       <r>    -2.4050     4.7542     2.3383 </r>
       <r>    -2.3518     3.9355     2.5477 </r>
       <r>    -2.2986     4.5723     2.7910 </r>
       <r>    -2.2454     2.6704     2.9330 </r>
       <r>    -2.1922     3.6687     3.1282 </r>
       <r>    -2.1390     5.0282     3.3957 </r>
       <r>    -2.0858     4.3657     3.6280 </r>
       <r>    -2.0326     4.3467     3.8593 </r>
       <r>    -1.9794     3.8048     4.0617 </r>
       <r>    -1.9262     5.6766     4.3637 </r>
       <r>    -1.8730     5.5901     4.6611 </r>
       <r>    -1.8198     4.4141     4.8960 </r>
       <r>    -1.7666     5.1182     5.1683 </r>
       <r>    -1.7134     2.9456     5.3250 </r>
       <r>    -1.6602     3.9739     5.5364 </r>
       <r>    -1.6070     6.5895     5.8870 </r>
       <r>    -1.5538     5.8700     6.1993 </r>
       <r>    -1.5006     6.9260     6.5678 </r>
       <r>    -1.4474     5.4734     6.8590 </r>
       <r>    -1.3942     4.5531     7.1013 </r>
       <r>    -1.3410     4.8165     7.3575 </r>
       <r>    -1.2878     4.8569     7.6159 </r>
       <r>    -1.2346     6.3216     7.9522 </r>
       <r>    -1.1814     4.9883     8.2176 </r>
       <r>    -1.1282     5.2721     8.4981 </r>
       <r>    -1.0750     7.8847     8.9176 </r>
       <r>    -1.0217     6.5259     9.2648 </r>
       <r>    -0.9685     6.9237     9.6332 </r>
       <r>    -0.9153     4.3286     9.8635 </r>
       <r>    -0.8621     4.8428    10.1212 </r>
       <r>    -0.8089     8.2386    10.5595 </r>
       <r>    -0.7557     7.2277    10.9440 </r>
       <r>    -0.7025     6.6038    11.2954 </r>
       <r>    -0.6493     4.3431    11.5264 </r>
       <r>    -0.5961     5.1365    11.7997 </r>
       <r>    -0.5429     7.4864    12.1980 </r>
       <r>    -0.4897     6.9991    12.5704 </r>
       <r>    -0.4365     7.3172    12.9597 </r>
       <r>    -0.3833     6.5069    13.3059 </r>
       <r>    -0.3301     7.4879    13.7043 </r>
       <r>    -0.2769    10.9710    14.2880 </r>
       <r>    -0.2237     6.3286    14.6247 </r>
       <r>    -0.1705     5.0999    14.8960 </r>
       <r>    -0.1173     5.1146    15.1681 </r>
       <r>    -0.0641     4.3766    15.4010 </r>
       <r>    -0.0109     7.8887    15.8207 </r>
       <r>     0.0423     8.8673    16.2925 </r>
       <r>     0.0955     9.9425    16.8214 </r>
       <r>     0.1487     6.7072    17.1783 </r>
       <r>     0.2019     7.0635    17.5541 </r>
       <r>     0.2551     8.8513    18.0250 </r>
       <r>     0.3083     7.4708    18.4225 </r>
       <r>     0.3615     8.3741    18.8680 </r>
       <r>     0.4148     7.3636    19.2598 </r>
       <r>     0.4680     5.0908    19.5307 </r>
       <r>     0.5212     8.4283    19.9791 </r>
       <r>     0.5744     8.7827    20.4463 </r>
       <r>     0.6276     9.6387    20.9592 </r>
       <r>     0.6808     6.4670    21.3032 </r>
       <r>     0.7340     6.1970    21.6329 </r>
       <r>     0.7872     9.1446    22.1194 </r>
       <r>     0.8404     7.4329    22.5149 </r>
       <r>     0.8936    10.1953    23.0573 </r>
       <r>     0.9468     8.7876    23.5249 </r>
       <r>     1.0000     6.7770    23.8854 </r>
       <r>     1.0532     9.8720    24.4107 </r>
       <r>     1.1064     9.2914    24.9050 </r>
       <r>     1.1596     9.1800    25.3934 </r>
       <r>     1.2128     8.5748    25.8496 </r>
       <r>     1.2660     7.4210    26.2444 </r>
       <r>     1.3192     9.6342    26.7570 </r>
       <r>     1.3724     8.5953    27.2143 </r>
       <r>     1.4256     7.4850    27.6126 </r>
       <r>     1.4788     4.6694    27.8610 </r>
       <r>     1.5320     7.1697    28.2424 </r>
       <r>     1.5852    12.7721    28.9220 </r>
       <r>     1.6384    10.3899    29.4747 </r>
       <r>     1.6916    11.6717    30.0957 </r>
       <r>     1.7448     9.1968    30.5850 </r>
       <r>     1.7980    10.0284    31.1186 </r>
       <r>     1.8513    11.6096    31.7362 </r>
       <r>     1.9045     7.7087    32.1464 </r>
       <r>     1.9577     6.7564    32.5058 </r>
       <r>     2.0109     6.0337    32.8269 </r>
       <r>     2.0641     9.8139    33.3490 </r>
       <r>     2.1173    11.7634    33.9749 </r>
       <r>     2.1705     9.3226    34.4709 </r>
       <r>     2.2237    10.2642    35.0169 </r>
       <r>     2.2769     7.3792    35.4095 </r>
       <r>     2.3301     8.5848    35.8663 </r>
       <r>     2.3833    12.3259    36.5221 </r>
       <r>     2.4365    11.9076    37.1556 </r>
       <r>     2.4897    12.8876    37.8413 </r>
       <r>     2.5429     7.0974    38.2189 </r>
       <r>     2.5961     6.0319    38.5398 </r>
       <r>     2.6493    10.1536    39.0800 </r>
       <r>     2.7025    11.6805    39.7015 </r>
       <r>     2.7557    12.0722    40.3437 </r>
       <r>     2.8089     8.8161    40.8128 </r>
       <r>     2.8621    13.2706    41.5188 </r>
       <r>     2.9153    12.1474    42.1651 </r>
       <r>     2.9685     8.8722    42.6372 </r>
       <r>     3.0217     8.6714    43.0985 </r>
       <r>     3.0749     4.2500    43.3246 </r>
       <r>     3.1281     9.8456    43.8484 </r>
       <r>     3.1813    14.7855    44.6351 </r>
       <r>     3.2346    12.6269    45.3069 </r>
       <r>     3.2878    10.0192    45.8400 </r>
       <r>     3.3410     8.6107    46.2981 </r>
       <r>     3.3942    11.0418    46.8855 </r>
       <r>     3.4474    11.5244    47.4987 </r>
       <r>     3.5006    12.5327    48.1655 </r>
       <r>     3.5538    11.1414    48.7582 </r>
       <r>     3.6070    11.7120    49.3814 </r>
       <r>     3.6602    14.1777    50.1357 </r>
       <r>     3.7134    11.2761    50.7356 </r>
       <r>     3.7666    10.4988    51.2942 </r>
       <r>     3.8198     7.8178    51.7101 </r>
       <r>     3.8730     7.3270    52.0999 </r>
       <r>     3.9262     9.9488    52.6292 </r>
       <r>     3.9794    11.7540    53.2546 </r>
       <r>     4.0326    14.6757    54.0354 </r>
       <r>     4.0858    11.2413    54.6335 </r>
       <r>     4.1390     9.2394    55.1251 </r>
       <r>     4.1922    13.2351    55.8292 </r>
       <r>     4.2454    14.3693    56.5937 </r>
       <r>     4.2986    12.7175    57.2703 </r>
       <r>     4.3518    11.9034    57.9036 </r>
       <r>     4.4050    13.6313    58.6289 </r>
       <r>     4.4582    12.0260    59.2687 </r>
       <r>     4.5114    12.3485    59.9257 </r>
       <r>     4.5646    10.5624    60.4877 </r>
       <r>     4.6178     9.2635    60.9805 </r>
       <r>     4.6711    10.1426    61.5201 </r>
       <r>     4.7243    11.8416    62.1502 </r>
       <r>     4.7775    15.0838    62.9527 </r>
       <r>     4.8307    15.3736    63.7706 </r>
       <r>     4.8839    12.9854    64.4615 </r>
       <r>     4.9371    14.5668    65.2365 </r>
       <r>     4.9903    15.9231    66.0837 </r>
       <r>     5.0435    10.8968    66.6634 </r>
       <r>     5.0967     7.6912    67.0726 </r>
       <r>     5.1499     9.5104    67.5786 </r>
       <r>     5.2031    13.5341    68.2987 </r>
       <r>     5.2563    14.9806    69.0957 </r>
       <r>     5.3095    13.9989    69.8405 </r>
       <r>     5.3627     9.8572    70.3649 </r>
       <r>     5.4159     6.5281    70.7122 </r>
       <r>     5.4691    11.0921    71.3024 </r>
       <r>     5.5223    13.9021    72.0420 </r>
       <r>     5.5755    14.9606    72.8380 </r>
       <r>     5.6287    13.2879    73.5449 </r>
       <r>     5.6819    11.1465    74.1380 </r>
       <r>     5.7351    13.6713    74.8653 </r>
       <r>     5.7883    11.9192    75.4995 </r>
       <r>     5.8415     7.4180    75.8942 </r>
       <r>     5.8947    10.3146    76.4429 </r>
       <r>     5.9479    14.0589    77.1909 </r>
       <r>     6.0011    11.7909    77.8182 </r>
       <r>     6.0544    10.6377    78.3842 </r>
       <r>     6.1076    13.8596    79.1216 </r>
       <r>     6.1608    11.0247    79.7081 </r>
       <r>     6.2140    10.8119    80.2834 </r>
       <r>     6.2672    13.2928    80.9906 </r>
       <r>     6.3204    11.8814    81.6227 </r>
       <r>     6.3736    14.2489    82.3808 </r>
       <r>     6.4268    14.6105    83.1582 </r>
       <r>     6.4800    11.1285    83.7502 </r>
       <r>     6.5332    10.7740    84.3235 </r>
       <r>     6.5864    11.8739    84.9552 </r>
       <r>     6.6396    15.1590    85.7617 </r>
       <r>     6.6928    14.9341    86.5563 </r>
       <r>     6.7460    14.8577    87.3467 </r>
       <r>     6.7992    14.6329    88.1253 </r>
       <r>     6.8524     9.0748    88.6081 </r>
       <r>     6.9056     9.5360    89.1154 </r>
       <r>     6.9588    14.6546    89.8951 </r>
       <r>     7.0120    16.3326    90.7641 </r>
       <r>     7.0652    13.6084    91.4881 </r>
       <r>     7.1184     9.9014    92.0149 </r>
       <r>     7.1716    11.1681    92.6091 </r>
       <r>     7.2248    13.2972    93.3165 </r>
       <r>     7.2780    14.5144    94.0888 </r>
       <r>     7.3312    15.5738    94.9173 </r>
       <r>     7.3844    15.1277    95.7222 </r>
       <r>     7.4376    11.2341    96.3199 </r>
       <r>     7.4909    11.6176    96.9380 </r>
       <r>     7.5441    12.7449    97.6161 </r>
       <r>     7.5973    14.1016    98.3663 </r>
       <r>     7.6505    10.8679    98.9445 </r>
       <r>     7.7037     9.8152    99.4667 </r>
       <r>     7.7569    12.4629   100.1298 </r>
       <r>     7.8101    20.5683   101.2241 </r>
       <r>     7.8633    19.1243   102.2416 </r>
       <r>     7.9165    14.8645   103.0325 </r>
       <r>     7.9697    14.3790   103.7975 </r>
       <r>     8.0229    14.5587   104.5720 </r>
       <r>     8.0761    15.6782   105.4062 </r>
       <r>     8.1293    11.7301   106.0303 </r>
       <r>     8.1825    14.0717   106.7789 </r>
       <r>     8.2357    15.8120   107.6202 </r>
       <r>     8.2889    11.8497   108.2506 </r>
       <r>     8.3421    11.3553   108.8548 </r>
       <r>     8.3953    11.4181   109.4623 </r>
       <r>     8.4485    11.6892   110.0842 </r>
       <r>     8.5017     9.3416   110.5812 </r>
       <r>     8.5549     9.8176   111.1035 </r>
       <r>     8.6081    17.0299   112.0096 </r>
       <r>     8.6613    21.2108   113.1381 </r>
       <r>     8.7145    17.7646   114.0832 </r>
       <r>     8.7677    16.4180   114.9567 </r>
       <r>     8.8209    19.7417   116.0070 </r>
       <r>     8.8741    15.7419   116.8446 </r>
       <r>     8.9274    10.9599   117.4277 </r>
       <r>     8.9806    14.0210   118.1736 </r>
       <r>     9.0338    12.5904   118.8435 </r>
       <r>     9.0870    10.1697   119.3846 </r>
       <r>     9.1402    13.4955   120.1026 </r>
       <r>     9.1934    17.2150   121.0185 </r>
       <r>     9.2466    15.0512   121.8193 </r>
       <r>     9.2998    13.6790   122.5470 </r>
       <r>     9.3530    17.8549   123.4970 </r>
       <r>     9.4062    16.6288   124.3817 </r>
       <r>     9.4594    15.7047   125.2172 </r>
       <r>     9.5126    14.5502   125.9914 </r>
       <r>     9.5658    13.2736   126.6976 </r>
       <r>     9.6190    15.1679   127.5046 </r>
       <r>     9.6722    13.2619   128.2102 </r>
       <r>     9.7254    14.8032   128.9977 </r>
       <r>     9.7786    15.5720   129.8262 </r>
       <r>     9.8318    14.8345   130.6155 </r>
       <r>     9.8850    15.8840   131.4606 </r>
       <r>     9.9382    15.7631   132.2992 </r>
       <r>     9.9914    12.3704   132.9574 </r>
       <r>    10.0446     9.6909   133.4730 </r>
       <r>    10.0978    12.6404   134.1455 </r>
       <r>    10.1510    15.9785   134.9956 </r>
       <r>    10.2042    18.1450   135.9610 </r>
       <r>    10.2574    19.0259   136.9732 </r>
       <r>    10.3107    14.8454   137.7631 </r>
       <r>    10.3639    14.9046   138.5560 </r>
       <r>    10.4171    11.8028   139.1840 </r>
       <r>    10.4703    11.4853   139.7950 </r>
       <r>    10.5235    13.6410   140.5208 </r>
       <r>    10.5767    12.7552   141.1994 </r>
       <r>    10.6299    11.7373   141.8239 </r>
       <r>    10.6831     9.1129   142.3087 </r>
       <r>    10.7363     8.1582   142.7428 </r>
       <r>    10.7895     7.9242   143.1644 </r>
       <r>    10.8427     4.8627   143.4231 </r>
       <r>    10.8959     1.9168   143.5251 </r>
       <r>    10.9491     3.0306   143.6863 </r>
       <r>    11.0023     3.0869   143.8505 </r>
       <r>    11.0555     1.2188   143.9154 </r>
       <r>    11.1087     0.9363   143.9652 </r>
       <r>    11.1619     0.3384   143.9832 </r>
       <r>    11.2151     0.2435   143.9962 </r>
       <r>    11.2683     0.0693   143.9998 </r>
       <r>    11.3215     0.0028   144.0000 </r>
       <r>    11.3747     0.0000   144.0000 </r>
       <r>    11.4279     0.0000   144.0000 </r>
       <r>    11.4811     0.0000   144.0000 </r>
       <r>    11.5343     0.0000   144.0000 </r>
       <r>    11.5875     0.0000   144.0000 </r>
       <r>    11.6407     0.0000   144.0000 </r>
       <r>    11.6939     0.0000   144.0000 </r>
       <r>    11.7472     0.0000   144.0000 </r>
       <r>    11.8004     0.0000   144.0000 </r>
       <r>    11.8536     0.0000   144.0000 </r>
       <r>    11.9068     0.0000   144.0000 </r>
      </set>
     </set>
    </array>
   </total>
  </dos>
 </calculation>
 <structure name="finalpos" >
  <crystal>
   <varray name="basis" >
    <v>       8.23836286       0.00000000       0.00000000 </v>
    <v>       0.00000000       8.23836286       0.00000000 </v>
    <v>       0.00000000       0.00000000       8.23836286 </v>
   </varray>
   <i name="volume">    559.14281761 </i>
   <varray name="rec_basis" >
    <v>       0.12138334       0.00000000       0.00000000 </v>
    <v>       0.00000000       0.12138334       0.00000000 </v>
    <v>       0.00000000       0.00000000       0.12138334 </v>
   </varray>
  </crystal>
  <varray name="positions" >
   <v>       0.00121383       0.00000000       0.00000000 </v>
   <v>       0.50000000       0.00000000       0.00000000 </v>
   <v>       0.00000000       0.50000000       0.00000000 </v>
   <v>       0.50000000       0.50000000       0.00000000 </v>
   <v>       0.00000000       0.00000000       0.50000000 </v>
   <v>       0.50000000       0.00000000       0.50000000 </v>
   <v>       0.00000000       0.50000000       0.50000000 </v>
   <v>       0.50000000       0.50000000       0.50000000 </v>
   <v>       0.00000000       0.25000000       0.25000000 </v>
   <v>       0.50000000       0.25000000       0.25000000 </v>
   <v>       0.00000000       0.75000000       0.25000000 </v>
   <v>       0.50000000       0.75000000       0.25000000 </v>
   <v>       0.00000000       0.25000000       0.75000000 </v>
   <v>       0.50000000       0.25000000       0.75000000 </v>
   <v>       0.00000000       0.75000000       0.75000000 </v>
   <v>       0.50000000       0.75000000       0.75000000 </v>
   <v>       0.25000000       0.00000000       0.25000000 </v>
   <v>       0.75000000       0.00000000       0.25000000 </v>
   <v>       0.25000000       0.50000000       0.25000000 </v>
   <v>       0.75000000       0.50000000       0.25000000 </v>
   <v>       0.25000000       0.00000000       0.75000000 </v>
   <v>       0.75000000       0.00000000       0.75000000 </v>
   <v>       0.25000000       0.50000000       0.75000000 </v>
   <v>       0.75000000       0.50000000       0.75000000 </v>
   <v>       0.25000000       0.25000000       0.00000000 </v>
   <v>       0.75000000       0.25000000       0.00000000 </v>
   <v>       0.25000000       0.75000000       0.00000000 </v>
   <v>       0.75000000       0.75000000       0.00000000 </v>
   <v>       0.25000000       0.25000000       0.50000000 </v>
   <v>       0.75000000       0.25000000       0.50000000 </v>
   <v>       0.25000000       0.75000000       0.50000000 </v>
   <v>       0.75000000       0.75000000       0.50000000 </v>
  </varray>
 </structure>
</modeling>
