<?xml version="1.0" encoding="ISO-8859-1"?>
<modeling>
 <generator>
  <i name="program" type="string">vasp </i>
  <i name="version" type="string">6.3.0  </i>
  <i name="subversion" type="string">20Jan22 (build Feb 10 2022 15:15:41) complex                          parallel </i>
  <i name="platform" type="string">LinuxIFC </i>
  <i name="date" type="string">2023 10 04 </i>
  <i name="time" type="string">16:12:39 </i>
 </generator>
 <incar>
  <i name="EDIFF">      0.00010000</i>
  <i name="ENCUT">    400.00000000</i>
  <i type="int" name="ISMEAR">     0</i>
  <i name="SIGMA">      0.05000000</i>
 </incar>
 <primitive_cell>
  <structure name="primitive_cell" >
   <crystal>
    <varray name="basis" >
     <v>       7.83452155       0.00000000       0.00000000 </v>
     <v>       0.00000000       7.83452155       0.00000000 </v>
     <v>       0.00000000       0.00000000       7.83452155 </v>
    </varray>
    <i name="volume">    480.88080072 </i>
    <varray name="rec_basis" >
     <v>       0.12764021       0.00000000       0.00000000 </v>
     <v>       0.00000000       0.12764021       0.00000000 </v>
     <v>       0.00000000       0.00000000       0.12764021 </v>
    </varray>
   </crystal>
   <varray name="positions" >
    <v>       0.00127640       0.00000000       0.00000000 </v>
    <v>       0.50000000       0.00000000       0.00000000 </v>
    <v>       0.00000000       0.50000000       0.00000000 </v>
    <v>       0.50000000       0.50000000       0.00000000 </v>
    <v>       0.00000000       0.00000000       0.50000000 </v>
    <v>       0.50000000       0.00000000       0.50000000 </v>
    <v>       0.00000000       0.50000000       0.50000000 </v>
    <v>       0.50000000       0.50000000       0.50000000 </v>
    <v>       0.00000000       0.25000000       0.25000000 </v>
    <v>       0.50000000       0.25000000       0.25000000 </v>
    <v>       0.00000000       0.75000000       0.25000000 </v>
    <v>       0.50000000       0.75000000       0.25000000 </v>
    <v>       0.00000000       0.25000000       0.75000000 </v>
    <v>       0.50000000       0.25000000       0.75000000 </v>
    <v>       0.00000000       0.75000000       0.75000000 </v>
    <v>       0.50000000       0.75000000       0.75000000 </v>
    <v>       0.25000000       0.00000000       0.25000000 </v>
    <v>       0.75000000       0.00000000       0.25000000 </v>
    <v>       0.25000000       0.50000000       0.25000000 </v>
    <v>       0.75000000       0.50000000       0.25000000 </v>
    <v>       0.25000000       0.00000000       0.75000000 </v>
    <v>       0.75000000       0.00000000       0.75000000 </v>
    <v>       0.25000000       0.50000000       0.75000000 </v>
    <v>       0.75000000       0.50000000       0.75000000 </v>
    <v>       0.25000000       0.25000000       0.00000000 </v>
    <v>       0.75000000       0.25000000       0.00000000 </v>
    <v>       0.25000000       0.75000000       0.00000000 </v>
    <v>       0.75000000       0.75000000       0.00000000 </v>
    <v>       0.25000000       0.25000000       0.50000000 </v>
    <v>       0.75000000       0.25000000       0.50000000 </v>
    <v>       0.25000000       0.75000000       0.50000000 </v>
    <v>       0.75000000       0.75000000       0.50000000 </v>
   </varray>
  </structure>
  <varray name="primitive_index" >
   <v type="int" >        1 </v>
   <v type="int" >        2 </v>
   <v type="int" >        3 </v>
   <v type="int" >        4 </v>
   <v type="int" >        5 </v>
   <v type="int" >        6 </v>
   <v type="int" >        7 </v>
   <v type="int" >        8 </v>
   <v type="int" >        9 </v>
   <v type="int" >       10 </v>
   <v type="int" >       11 </v>
   <v type="int" >       12 </v>
   <v type="int" >       13 </v>
   <v type="int" >       14 </v>
   <v type="int" >       15 </v>
   <v type="int" >       16 </v>
   <v type="int" >       17 </v>
   <v type="int" >       18 </v>
   <v type="int" >       19 </v>
   <v type="int" >       20 </v>
   <v type="int" >       21 </v>
   <v type="int" >       22 </v>
   <v type="int" >       23 </v>
   <v type="int" >       24 </v>
   <v type="int" >       25 </v>
   <v type="int" >       26 </v>
   <v type="int" >       27 </v>
   <v type="int" >       28 </v>
   <v type="int" >       29 </v>
   <v type="int" >       30 </v>
   <v type="int" >       31 </v>
   <v type="int" >       32 </v>
  </varray>
 </primitive_cell>
 <kpoints>
  <generation param="Gamma">
   <v type="int" name="divisions">       8        8        8 </v>
   <v name="usershift">      0.00000000       0.00000000       0.00000000 </v>
   <v name="genvec1">      0.12500000       0.00000000       0.00000000 </v>
   <v name="genvec2">      0.00000000       0.12500000       0.00000000 </v>
   <v name="genvec3">      0.00000000       0.00000000       0.12500000 </v>
   <v name="shift">      0.00000000       0.00000000       0.00000000 </v>
  </generation>
  <varray name="kpointlist" >
   <v>       0.00000000       0.00000000       0.00000000 </v>
   <v>       0.12500000       0.00000000       0.00000000 </v>
   <v>       0.00000000       0.12500000       0.00000000 </v>
   <v>       0.25000000       0.00000000       0.00000000 </v>
   <v>       0.00000000       0.25000000       0.00000000 </v>
   <v>       0.37500000       0.00000000       0.00000000 </v>
   <v>       0.00000000       0.37500000       0.00000000 </v>
   <v>       0.50000000       0.00000000       0.00000000 </v>
   <v>       0.00000000       0.50000000       0.00000000 </v>
   <v>       0.12500000       0.12500000       0.00000000 </v>
   <v>       0.00000000       0.12500000       0.12500000 </v>
   <v>       0.25000000       0.12500000       0.00000000 </v>
   <v>       0.00000000       0.25000000       0.12500000 </v>
   <v>       0.12500000       0.00000000       0.25000000 </v>
   <v>       0.37500000       0.12500000       0.00000000 </v>
   <v>       0.00000000       0.37500000       0.12500000 </v>
   <v>       0.12500000       0.00000000       0.37500000 </v>
   <v>       0.50000000       0.12500000       0.00000000 </v>
   <v>       0.00000000       0.50000000       0.12500000 </v>
   <v>       0.12500000       0.00000000       0.50000000 </v>
   <v>       0.25000000       0.25000000       0.00000000 </v>
   <v>       0.00000000       0.25000000       0.25000000 </v>
   <v>       0.37500000       0.25000000       0.00000000 </v>
   <v>       0.00000000       0.37500000       0.25000000 </v>
   <v>       0.25000000       0.00000000       0.37500000 </v>
   <v>       0.50000000       0.25000000       0.00000000 </v>
   <v>       0.00000000       0.50000000       0.25000000 </v>
   <v>       0.25000000       0.00000000       0.50000000 </v>
   <v>       0.37500000       0.37500000       0.00000000 </v>
   <v>       0.00000000       0.37500000       0.37500000 </v>
   <v>       0.50000000       0.37500000       0.00000000 </v>
   <v>       0.00000000       0.50000000       0.37500000 </v>
   <v>       0.37500000       0.00000000       0.50000000 </v>
   <v>       0.50000000       0.50000000       0.00000000 </v>
   <v>       0.00000000       0.50000000       0.50000000 </v>
   <v>       0.12500000       0.12500000       0.12500000 </v>
   <v>       0.25000000       0.12500000       0.12500000 </v>
   <v>       0.12500000       0.25000000       0.12500000 </v>
   <v>       0.37500000       0.12500000       0.12500000 </v>
   <v>       0.12500000       0.37500000       0.12500000 </v>
   <v>       0.50000000       0.12500000       0.12500000 </v>
   <v>       0.12500000       0.50000000       0.12500000 </v>
   <v>       0.25000000       0.25000000       0.12500000 </v>
   <v>       0.12500000       0.25000000       0.25000000 </v>
   <v>       0.37500000       0.25000000       0.12500000 </v>
   <v>       0.12500000       0.37500000       0.25000000 </v>
   <v>       0.25000000       0.12500000       0.37500000 </v>
   <v>       0.50000000       0.25000000       0.12500000 </v>
   <v>       0.12500000       0.50000000       0.25000000 </v>
   <v>       0.25000000       0.12500000       0.50000000 </v>
   <v>       0.37500000       0.37500000       0.12500000 </v>
   <v>       0.12500000       0.37500000       0.37500000 </v>
   <v>       0.50000000       0.37500000       0.12500000 </v>
   <v>       0.12500000       0.50000000       0.37500000 </v>
   <v>       0.37500000       0.12500000       0.50000000 </v>
   <v>       0.50000000       0.50000000       0.12500000 </v>
   <v>       0.12500000       0.50000000       0.50000000 </v>
   <v>       0.25000000       0.25000000       0.25000000 </v>
   <v>       0.37500000       0.25000000       0.25000000 </v>
   <v>       0.25000000       0.37500000       0.25000000 </v>
   <v>       0.50000000       0.25000000       0.25000000 </v>
   <v>       0.25000000       0.50000000       0.25000000 </v>
   <v>       0.37500000       0.37500000       0.25000000 </v>
   <v>       0.25000000       0.37500000       0.37500000 </v>
   <v>       0.50000000       0.37500000       0.25000000 </v>
   <v>       0.25000000       0.50000000       0.37500000 </v>
   <v>       0.37500000       0.25000000       0.50000000 </v>
   <v>       0.50000000       0.50000000       0.25000000 </v>
   <v>       0.25000000       0.50000000       0.50000000 </v>
   <v>       0.37500000       0.37500000       0.37500000 </v>
   <v>       0.50000000       0.37500000       0.37500000 </v>
   <v>       0.37500000       0.50000000       0.37500000 </v>
   <v>       0.50000000       0.50000000       0.37500000 </v>
   <v>       0.37500000       0.50000000       0.50000000 </v>
   <v>       0.50000000       0.50000000       0.50000000 </v>
  </varray>
  <varray name="weights" >
   <v>       0.00195312 </v>
   <v>       0.00390625 </v>
   <v>       0.00781250 </v>
   <v>       0.00390625 </v>
   <v>       0.00781250 </v>
   <v>       0.00390625 </v>
   <v>       0.00781250 </v>
   <v>       0.00195312 </v>
   <v>       0.00390625 </v>
   <v>       0.01562500 </v>
   <v>       0.00781250 </v>
   <v>       0.01562500 </v>
   <v>       0.01562500 </v>
   <v>       0.01562500 </v>
   <v>       0.01562500 </v>
   <v>       0.01562500 </v>
   <v>       0.01562500 </v>
   <v>       0.00781250 </v>
   <v>       0.00781250 </v>
   <v>       0.00781250 </v>
   <v>       0.01562500 </v>
   <v>       0.00781250 </v>
   <v>       0.01562500 </v>
   <v>       0.01562500 </v>
   <v>       0.01562500 </v>
   <v>       0.00781250 </v>
   <v>       0.00781250 </v>
   <v>       0.00781250 </v>
   <v>       0.01562500 </v>
   <v>       0.00781250 </v>
   <v>       0.00781250 </v>
   <v>       0.00781250 </v>
   <v>       0.00781250 </v>
   <v>       0.00390625 </v>
   <v>       0.00195312 </v>
   <v>       0.01562500 </v>
   <v>       0.01562500 </v>
   <v>       0.03125000 </v>
   <v>       0.01562500 </v>
   <v>       0.03125000 </v>
   <v>       0.00781250 </v>
   <v>       0.01562500 </v>
   <v>       0.03125000 </v>
   <v>       0.01562500 </v>
   <v>       0.03125000 </v>
   <v>       0.03125000 </v>
   <v>       0.03125000 </v>
   <v>       0.01562500 </v>
   <v>       0.01562500 </v>
   <v>       0.01562500 </v>
   <v>       0.03125000 </v>
   <v>       0.01562500 </v>
   <v>       0.01562500 </v>
   <v>       0.01562500 </v>
   <v>       0.01562500 </v>
   <v>       0.00781250 </v>
   <v>       0.00390625 </v>
   <v>       0.01562500 </v>
   <v>       0.01562500 </v>
   <v>       0.03125000 </v>
   <v>       0.00781250 </v>
   <v>       0.01562500 </v>
   <v>       0.03125000 </v>
   <v>       0.01562500 </v>
   <v>       0.01562500 </v>
   <v>       0.01562500 </v>
   <v>       0.01562500 </v>
   <v>       0.00781250 </v>
   <v>       0.00390625 </v>
   <v>       0.01562500 </v>
   <v>       0.00781250 </v>
   <v>       0.01562500 </v>
   <v>       0.00781250 </v>
   <v>       0.00390625 </v>
   <v>       0.00195312 </v>
  </varray>
 </kpoints>
 <parameters>
  <separator name="general" >
   <i type="string" name="SYSTEM">unknown system</i>
   <i type="logical" name="LCOMPAT"> F  </i>
  </separator>
  <separator name="electronic" >
   <i type="string" name="PREC">normal</i>
   <i name="ENMAX">    400.00000000</i>
   <i name="ENAUG">    291.05200000</i>
   <i name="EDIFF">      0.00010000</i>
   <i type="int" name="IALGO">    38</i>
   <i type="int" name="IWAVPR">    10</i>
   <i type="int" name="NBANDS">    72</i>
   <i type="int" name="NBANDSLOW">    -1</i>
   <i type="int" name="NBANDSHIGH">    -1</i>
   <i name="NELECT">     96.00000000</i>
   <i type="int" name="TURBO">     0</i>
   <i type="int" name="IRESTART">     0</i>
   <i type="int" name="NREBOOT">     0</i>
   <i type="int" name="NMIN">     0</i>
   <i name="EREF">      0.00000000</i>
   <separator name="electronic smearing" >
    <i type="int" name="ISMEAR">     0</i>
    <i name="SIGMA">      0.05000000</i>
    <i name="KSPACING">      0.50000000</i>
    <i type="logical" name="KGAMMA"> T  </i>
    <i type="logical" name="KBLOWUP"> T  </i>
   </separator>
   <separator name="electronic projectors" >
    <i type="logical" name="LREAL"> F  </i>
    <v name="ROPT">      0.00000000</v>
    <i type="int" name="LMAXPAW">  -100</i>
    <i type="int" name="LMAXMIX">     2</i>
    <i type="logical" name="NLSPLINE"> F  </i>
   </separator>
   <separator name="electronic startup" >
    <i type="int" name="ISTART">     0</i>
    <i type="int" name="ICHARG">     2</i>
    <i type="int" name="INIWAV">     1</i>
   </separator>
   <separator name="electronic spin" >
    <i type="int" name="ISPIN">     1</i>
    <i type="logical" name="LNONCOLLINEAR"> F  </i>
    <v name="MAGMOM">      1.00000000      1.00000000      1.00000000      1.00000000      1.00000000      1.00000000      1.00000000      1.00000000      1.00000000      1.00000000      1.00000000      1.00000000      1.00000000      1.00000000      1.00000000      1.00000000      1.00000000      1.00000000      1.00000000      1.00000000
      1.00000000      1.00000000      1.00000000      1.00000000      1.00000000      1.00000000      1.00000000      1.00000000      1.00000000      1.00000000      1.00000000      1.00000000</v>
    <i name="NUPDOWN">     -1.00000000</i>
    <i type="logical" name="LSORBIT"> F  </i>
    <v name="SAXIS">      0.00000000      0.00000000      1.00000000</v>
    <i type="logical" name="LSPIRAL"> F  </i>
    <v name="QSPIRAL">      0.00000000      0.00000000      0.00000000</v>
    <i type="logical" name="LZEROZ"> F  </i>
   </separator>
   <separator name="electronic exchange-correlation" >
    <i type="logical" name="LASPH"> F  </i>
    <i type="logical" name="LMETAGGA"> F  </i>
   </separator>
   <separator name="electronic convergence" >
    <i type="int" name="NELM">    60</i>
    <i type="int" name="NELMDL">    -5</i>
    <i type="int" name="NELMIN">     2</i>
    <i name="ENINI">    400.00000000</i>
    <separator name="electronic convergence detail" >
     <i type="logical" name="LDIAG"> T  </i>
     <i type="logical" name="LSUBROT"> F  </i>
     <i name="WEIMIN">      0.00000000</i>
     <i name="EBREAK">      0.00000035</i>
     <i name="DEPER">      0.30000000</i>
     <i type="int" name="NRMM">     4</i>
     <i name="TIME">      0.40000000</i>
    </separator>
   </separator>
   <separator name="electronic mixer" >
    <i name="AMIX">      0.40000000</i>
    <i name="BMIX">      1.00000000</i>
    <i name="AMIN">      0.10000000</i>
    <i name="AMIX_MAG">      1.60000000</i>
    <i name="BMIX_MAG">      1.00000000</i>
    <separator name="electronic mixer details" >
     <i type="int" name="IMIX">     4</i>
     <i type="logical" name="MIXFIRST"> F  </i>
     <i type="int" name="MAXMIX">   -45</i>
     <i name="WC">    100.00000000</i>
     <i type="int" name="INIMIX">     1</i>
     <i type="int" name="MIXPRE">     1</i>
     <i type="int" name="MREMOVE">     5</i>
    </separator>
   </separator>
   <separator name="electronic dipolcorrection" >
    <i type="logical" name="LDIPOL"> F  </i>
    <i type="logical" name="LMONO"> F  </i>
    <i type="int" name="IDIPOL">     0</i>
    <i name="EPSILON">      1.00000000</i>
    <v name="DIPOL">   -100.00000000   -100.00000000   -100.00000000</v>
    <i name="EFIELD">      0.00000000</i>
   </separator>
  </separator>
  <separator name="grids" >
   <i type="int" name="NGX">    40</i>
   <i type="int" name="NGY">    40</i>
   <i type="int" name="NGZ">    40</i>
   <i type="int" name="NGXF">    80</i>
   <i type="int" name="NGYF">    80</i>
   <i type="int" name="NGZF">    80</i>
   <i type="logical" name="ADDGRID"> F  </i>
  </separator>
  <separator name="ionic" >
   <i type="int" name="NSW">     0</i>
   <i type="int" name="IBRION">    -1</i>
   <i type="int" name="MDALGO">     0</i>
   <i type="int" name="ISIF">     2</i>
   <i name="PSTRESS">      0.00000000</i>
   <i name="EDIFFG">      0.00100000</i>
   <i type="int" name="NFREE">     0</i>
   <i name="POTIM">      0.50000000</i>
   <i name="SMASS">     -3.00000000</i>
   <i name="SCALEE">      1.00000000</i>
  </separator>
  <separator name="ionic md" >
   <i name="TEBEG">      0.00010000</i>
   <i name="TEEND">      0.00010000</i>
   <i type="int" name="NBLOCK">     1</i>
   <i type="int" name="KBLOCK">     1</i>
   <i type="int" name="NPACO">   256</i>
   <i name="APACO">     10.00000000</i>
  </separator>
  <separator name="symmetry" >
   <i type="int" name="ISYM">     2</i>
   <i name="SYMPREC">      0.00001000</i>
  </separator>
  <separator name="dos" >
   <i type="int" name="LORBIT">     0</i>
   <v name="RWIGS">     -1.00000000</v>
   <i type="int" name="NEDOS">   301</i>
   <i name="EMIN">     10.00000000</i>
   <i name="EMAX">    -10.00000000</i>
   <i name="EFERMI">      0.00000000</i>
  </separator>
  <separator name="writing" >
   <i type="int" name="NWRITE">     2</i>
   <i type="logical" name="LWAVE"> T  </i>
   <i type="logical" name="LDOWNSAMPLE"> F  </i>
   <i type="logical" name="LCHARG"> T  </i>
   <i type="logical" name="LPARD"> F  </i>
   <i type="logical" name="LVTOT"> F  </i>
   <i type="logical" name="LVHAR"> F  </i>
   <i type="logical" name="LELF"> F  </i>
   <i type="logical" name="LOPTICS"> F  </i>
   <v name="STM">      0.00000000      0.00000000      0.00000000      0.00000000      0.00000000      0.00000000      0.00000000</v>
  </separator>
  <separator name="performance" >
   <i type="int" name="NPAR">    24</i>
   <i type="int" name="NSIM">     4</i>
   <i type="int" name="NBLK">    -1</i>
   <i type="logical" name="LPLANE"> T  </i>
   <i type="logical" name="LSCALAPACK"> T  </i>
   <i type="logical" name="LSCAAWARE"> F  </i>
   <i type="logical" name="LSCALU"> F  </i>
   <i type="logical" name="LASYNC"> F  </i>
   <i type="logical" name="LORBITALREAL"> F  </i>
  </separator>
  <separator name="miscellaneous" >
   <i type="int" name="IDIOT">     3</i>
   <i type="int" name="PHON_NSTRUCT">    -1</i>
   <i type="logical" name="LMUSIC"> F  </i>
   <v name="POMASS">     26.98100000</v>
   <v name="DARWINR">      0.00000000</v>
   <v name="DARWINV">      1.00000000</v>
   <i type="logical" name="LCORR"> T  </i>
  </separator>
  <i type="logical" name="GGA_COMPAT"> T  </i>
  <i type="logical" name="LBERRY"> F  </i>
  <i type="int" name="ICORELEVEL">     0</i>
  <i type="logical" name="LDAU"> F  </i>
  <i type="int" name="I_CONSTRAINED_M">     0</i>
  <separator name="electronic exchange-correlation" >
   <i type="string" name="GGA">--</i>
   <i type="int" name="VOSKOWN">     0</i>
   <i type="logical" name="LHFCALC"> F  </i>
   <i type="string" name="PRECFOCK"></i>
   <i type="logical" name="LSYMGRAD"> F  </i>
   <i type="logical" name="LHFONE"> F  </i>
   <i type="logical" name="LRHFCALC"> F  </i>
   <i type="logical" name="LTHOMAS"> F  </i>
   <i type="logical" name="LMODELHF"> F  </i>
   <i type="logical" name="LFOCKACE"> F  </i>
   <i name="ENCUT4O">     -1.00000000</i>
   <i type="int" name="EXXOEP">     0</i>
   <i type="int" name="FOURORBIT">     0</i>
   <i name="AEXX">      0.00000000</i>
   <i name="HFALPHA">      0.00000000</i>
   <i name="MCALPHA">      0.00000000</i>
   <i name="ALDAX">      1.00000000</i>
   <i name="AGGAX">      1.00000000</i>
   <i name="ALDAC">      1.00000000</i>
   <i name="AGGAC">      1.00000000</i>
   <i type="int" name="NKREDX">     1</i>
   <i type="int" name="NKREDY">     1</i>
   <i type="int" name="NKREDZ">     1</i>
   <i type="logical" name="SHIFTRED"> F  </i>
   <i type="logical" name="ODDONLY"> F  </i>
   <i type="logical" name="EVENONLY"> F  </i>
   <i type="int" name="LMAXFOCK">     0</i>
   <i type="int" name="NMAXFOCKAE">     0</i>
   <i type="logical" name="LFOCKAEDFT"> F  </i>
   <i name="HFSCREEN">      0.00000000</i>
   <i name="HFSCREENC">      0.00000000</i>
   <i type="int" name="NBANDSGWLOW">     0</i>
  </separator>
  <separator name="vdW DFT" >
   <i type="logical" name="LUSE_VDW"> F  </i>
   <i name="Zab_VDW">     -0.84910000</i>
   <i name="PARAM1">      0.12340000</i>
   <i name="PARAM2">      1.00000000</i>
   <i name="PARAM3">      0.00000000</i>
  </separator>
  <separator name="model GW" >
   <i type="int" name="MODEL_GW">     0</i>
   <i name="MODEL_EPS0">      9.01651501</i>
   <i name="MODEL_ALPHA">      1.00000000</i>
  </separator>
  <separator name="linear response parameters" >
   <i type="logical" name="LEPSILON"> F  </i>
   <i type="logical" name="LRPA"> F  </i>
   <i type="logical" name="LNABLA"> F  </i>
   <i type="logical" name="LVEL"> F  </i>
   <i name="CSHIFT">      0.10000000</i>
   <i name="OMEGAMAX">     -1.00000000</i>
   <i name="DEG_THRESHOLD">      0.00200000</i>
   <i name="RTIME">     -0.10000000</i>
   <i name="WPLASMAI">      0.00000000</i>
   <v name="DFIELD">      0.00000000      0.00000000      0.00000000</v>
   <v name="WPLASMA">      0.00000000      0.00000000      0.00000000      0.00000000      0.00000000      0.00000000      0.00000000      0.00000000      0.00000000</v>
  </separator>
  <separator name="orbital magnetization" >
   <i type="logical" name="NUCIND"> F  </i>
   <v name="MAGPOS">      0.00000000      0.00000000      0.00000000</v>
   <i type="logical" name="LNICSALL"> T  </i>
   <i type="logical" name="ORBITALMAG"> F  </i>
   <i type="logical" name="LMAGBLOCH"> F  </i>
   <i type="logical" name="LCHIMAG"> F  </i>
   <i type="logical" name="LGAUGE"> T  </i>
   <i type="int" name="MAGATOM">     0</i>
   <v name="MAGDIPOL">      0.00000000      0.00000000      0.00000000</v>
   <v name="AVECCONST">      0.00000000      0.00000000      0.00000000</v>
  </separator>
  <separator name="response functions" >
   <i type="logical" name="LFINITE_TEMPERATURE"> F  </i>
   <i type="logical" name="LADDER"> F  </i>
   <i type="logical" name="LRPAFORCE"> F  </i>
   <i type="logical" name="LFXC"> F  </i>
   <i type="logical" name="LHARTREE"> T  </i>
   <i type="int" name="IBSE">     0</i>
   <v type="int" name="KPOINT">    -1     0     0     0</v>
   <i type="logical" name="LTCTC"> F  </i>
   <i type="logical" name="LTCTE"> F  </i>
   <i type="logical" name="LTETE"> F  </i>
   <i type="logical" name="LTRIPLET"> F  </i>
   <i type="logical" name="LFXCEPS"> F  </i>
   <i type="logical" name="LFXHEG"> F  </i>
   <i type="int" name="NATURALO">     2</i>
   <i type="logical" name="LHOLEGF"> F  </i>
   <i type="logical" name="L2ORDER"> F  </i>
   <i type="logical" name="LDMP1"> F  </i>
   <i type="logical" name="LMP2LT"> F  </i>
   <i type="logical" name="LSMP2LT"> F  </i>
   <i type="logical" name="LGWLF"> F  </i>
   <i name="ENCUTGW">     -2.00000000</i>
   <i name="ENCUTGWSOFT">     -2.00000000</i>
   <i name="ENCUTLF">     -1.00000000</i>
   <i type="logical" name="LESF_SPLINES"> F  </i>
   <i type="int" name="LMAXMP2">    -1</i>
   <i name="SCISSOR">      0.00000000</i>
   <i type="int" name="NOMEGA">     0</i>
   <i type="int" name="NOMEGAR">     0</i>
   <i type="int" name="NBANDSGW">    -1</i>
   <i type="int" name="NBANDSO">    -1</i>
   <i type="int" name="NBANDSV">    -1</i>
   <i type="int" name="NELMGW">     1</i>
   <i type="int" name="NELMHF">     1</i>
   <i type="int" name="DIM">     3</i>
   <i type="int" name="IESPILON">     4</i>
   <i type="int" name="ANTIRES">     0</i>
   <i name="OMEGAMAX">    -30.00000000</i>
   <i name="OMEGAMIN">    -30.00000000</i>
   <i name="OMEGATL">   -200.00000000</i>
   <i type="int" name="OMEGAGRID">     0</i>
   <i name="CSHIFT">     -0.10000000</i>
   <i type="logical" name="LSELFENERGY"> F  </i>
   <i type="logical" name="LSPECTRAL"> F  </i>
   <i type="logical" name="LSPECTRALGW"> F  </i>
   <i type="logical" name="LSINGLES"> F  </i>
   <i type="logical" name="LFERMIGW"> F  </i>
   <i type="logical" name="ODDONLYGW"> F  </i>
   <i type="logical" name="EVENONLYGW"> F  </i>
   <i type="int" name="NKREDLFX">     1</i>
   <i type="int" name="NKREDLFY">     1</i>
   <i type="int" name="NKREDLFZ">     1</i>
   <i type="int" name="MAXMEM">  2800</i>
   <i type="int" name="TELESCOPE">     0</i>
   <i type="int" name="NTAUPAR">    -1</i>
   <i type="int" name="NOMEGAPAR">    -1</i>
   <i name="DAMP_NEWTON">      0.80000001</i>
   <i name="LAMBDA">      1.00000000</i>
  </separator>
  <separator name="External order field" >
   <i name="OFIELD_KAPPA">      0.00000000</i>
   <v name="OFIELD_K">      0.00000000      0.00000000      0.00000000</v>
   <i name="OFIELD_Q6_NEAR">      0.00000000</i>
   <i name="OFIELD_Q6_FAR">      0.00000000</i>
   <i name="OFIELD_A">      0.00000000</i>
  </separator>
  <separator name="optional k-points parameters" >
   <i type="int" name="KPOINTS_OPT_MODE">     1</i>
   <i type="logical" name="LKPOINTS_OPT"> F  </i>
  </separator>
 </parameters>
 <atominfo>
  <atoms>      32 </atoms>
  <types>       1 </types>
  <array name="atoms" >
   <dimension dim="1">ion</dimension>
   <field type="string">element</field>
   <field type="int">atomtype</field>
   <set>
    <rc><c>Al</c><c>   1</c></rc>
    <rc><c>Al</c><c>   1</c></rc>
    <rc><c>Al</c><c>   1</c></rc>
    <rc><c>Al</c><c>   1</c></rc>
    <rc><c>Al</c><c>   1</c></rc>
    <rc><c>Al</c><c>   1</c></rc>
    <rc><c>Al</c><c>   1</c></rc>
    <rc><c>Al</c><c>   1</c></rc>
    <rc><c>Al</c><c>   1</c></rc>
    <rc><c>Al</c><c>   1</c></rc>
    <rc><c>Al</c><c>   1</c></rc>
    <rc><c>Al</c><c>   1</c></rc>
    <rc><c>Al</c><c>   1</c></rc>
    <rc><c>Al</c><c>   1</c></rc>
    <rc><c>Al</c><c>   1</c></rc>
    <rc><c>Al</c><c>   1</c></rc>
    <rc><c>Al</c><c>   1</c></rc>
    <rc><c>Al</c><c>   1</c></rc>
    <rc><c>Al</c><c>   1</c></rc>
    <rc><c>Al</c><c>   1</c></rc>
    <rc><c>Al</c><c>   1</c></rc>
    <rc><c>Al</c><c>   1</c></rc>
    <rc><c>Al</c><c>   1</c></rc>
    <rc><c>Al</c><c>   1</c></rc>
    <rc><c>Al</c><c>   1</c></rc>
    <rc><c>Al</c><c>   1</c></rc>
    <rc><c>Al</c><c>   1</c></rc>
    <rc><c>Al</c><c>   1</c></rc>
    <rc><c>Al</c><c>   1</c></rc>
    <rc><c>Al</c><c>   1</c></rc>
    <rc><c>Al</c><c>   1</c></rc>
    <rc><c>Al</c><c>   1</c></rc>
   </set>
  </array>
  <array name="atomtypes" >
   <dimension dim="1">type</dimension>
   <field type="int">atomspertype</field>
   <field type="string">element</field>
   <field>mass</field>
   <field>valence</field>
   <field type="string">pseudopotential</field>
   <set>
    <rc><c>  32</c><c>Al</c><c>     26.98100000</c><c>      3.00000000</c><c>  PAW_PBE Al 04Jan2001                  </c></rc>
   </set>
  </array>
 </atominfo>
 <structure name="initialpos" >
  <crystal>
   <varray name="basis" >
    <v>       7.83452155       0.00000000       0.00000000 </v>
    <v>       0.00000000       7.83452155       0.00000000 </v>
    <v>       0.00000000       0.00000000       7.83452155 </v>
   </varray>
   <i name="volume">    480.88080072 </i>
   <varray name="rec_basis" >
    <v>       0.12764021       0.00000000       0.00000000 </v>
    <v>       0.00000000       0.12764021       0.00000000 </v>
    <v>       0.00000000       0.00000000       0.12764021 </v>
   </varray>
  </crystal>
  <varray name="positions" >
   <v>       0.00127640       0.00000000       0.00000000 </v>
   <v>       0.50000000       0.00000000       0.00000000 </v>
   <v>       0.00000000       0.50000000       0.00000000 </v>
   <v>       0.50000000       0.50000000       0.00000000 </v>
   <v>       0.00000000       0.00000000       0.50000000 </v>
   <v>       0.50000000       0.00000000       0.50000000 </v>
   <v>       0.00000000       0.50000000       0.50000000 </v>
   <v>       0.50000000       0.50000000       0.50000000 </v>
   <v>       0.00000000       0.25000000       0.25000000 </v>
   <v>       0.50000000       0.25000000       0.25000000 </v>
   <v>       0.00000000       0.75000000       0.25000000 </v>
   <v>       0.50000000       0.75000000       0.25000000 </v>
   <v>       0.00000000       0.25000000       0.75000000 </v>
   <v>       0.50000000       0.25000000       0.75000000 </v>
   <v>       0.00000000       0.75000000       0.75000000 </v>
   <v>       0.50000000       0.75000000       0.75000000 </v>
   <v>       0.25000000       0.00000000       0.25000000 </v>
   <v>       0.75000000       0.00000000       0.25000000 </v>
   <v>       0.25000000       0.50000000       0.25000000 </v>
   <v>       0.75000000       0.50000000       0.25000000 </v>
   <v>       0.25000000       0.00000000       0.75000000 </v>
   <v>       0.75000000       0.00000000       0.75000000 </v>
   <v>       0.25000000       0.50000000       0.75000000 </v>
   <v>       0.75000000       0.50000000       0.75000000 </v>
   <v>       0.25000000       0.25000000       0.00000000 </v>
   <v>       0.75000000       0.25000000       0.00000000 </v>
   <v>       0.25000000       0.75000000       0.00000000 </v>
   <v>       0.75000000       0.75000000       0.00000000 </v>
   <v>       0.25000000       0.25000000       0.50000000 </v>
   <v>       0.75000000       0.25000000       0.50000000 </v>
   <v>       0.25000000       0.75000000       0.50000000 </v>
   <v>       0.75000000       0.75000000       0.50000000 </v>
  </varray>
 </structure>
 <calculation>
  <scstep>
   <time name="dav">    4.08    4.11</time>
   <time name="total">    4.10    4.15</time>
   <energy>
    <i name="alphaZ">     -7.15233657 </i>
    <i name="ewald">  -2426.95707451 </i>
    <i name="hartreedc">     -2.40120787 </i>
    <i name="XCdc">   -834.19530301 </i>
    <i name="pawpsdc">   2118.40502803 </i>
    <i name="pawaedc">  -1095.85986421 </i>
    <i name="eentropy">     -0.00824623 </i>
    <i name="bandstr">    625.79721918 </i>
    <i name="atom">   1713.22093829 </i>
    <i name="e_fr_energy">     90.84915310 </i>
    <i name="e_wo_entrp">     90.85739934 </i>
    <i name="e_0_energy">     90.85327622 </i>
   </energy>
  </scstep>
  <scstep>
   <time name="dav">    4.84    4.86</time>
   <time name="total">    4.84    4.86</time>
   <energy>
    <i name="e_fr_energy">   -111.69819756 </i>
    <i name="e_wo_entrp">   -111.68589452 </i>
    <i name="e_0_energy">   -111.69204604 </i>
   </energy>
  </scstep>
  <scstep>
   <time name="dav">    5.12    5.14</time>
   <time name="total">    5.12    5.14</time>
   <energy>
    <i name="e_fr_energy">   -119.42796698 </i>
    <i name="e_wo_entrp">   -119.41692285 </i>
    <i name="e_0_energy">   -119.42244491 </i>
   </energy>
  </scstep>
  <scstep>
   <time name="dav">    4.39    4.41</time>
   <time name="total">    4.40    4.41</time>
   <energy>
    <i name="e_fr_energy">   -119.51394103 </i>
    <i name="e_wo_entrp">   -119.50313952 </i>
    <i name="e_0_energy">   -119.50854028 </i>
   </energy>
  </scstep>
  <scstep>
   <time name="dav">    5.02    5.04</time>
   <time name="total">    5.10    5.14</time>
   <energy>
    <i name="e_fr_energy">   -119.51491949 </i>
    <i name="e_wo_entrp">   -119.50411998 </i>
    <i name="e_0_energy">   -119.50951973 </i>
   </energy>
  </scstep>
  <scstep>
   <time name="dav">    4.57    4.59</time>
   <time name="total">    4.66    4.68</time>
   <energy>
    <i name="e_fr_energy">   -119.06173460 </i>
    <i name="e_wo_entrp">   -119.05098148 </i>
    <i name="e_0_energy">   -119.05635804 </i>
   </energy>
  </scstep>
  <scstep>
   <time name="dav">    4.49    4.51</time>
   <time name="total">    4.59    4.62</time>
   <energy>
    <i name="e_fr_energy">   -118.73450689 </i>
    <i name="e_wo_entrp">   -118.72383384 </i>
    <i name="e_0_energy">   -118.72917037 </i>
   </energy>
  </scstep>
  <scstep>
   <time name="dav">    5.20    5.22</time>
   <time name="total">    5.29    5.31</time>
   <energy>
    <i name="e_fr_energy">   -118.73149336 </i>
    <i name="e_wo_entrp">   -118.72082822 </i>
    <i name="e_0_energy">   -118.72616079 </i>
   </energy>
  </scstep>
  <scstep>
   <time name="dav">    3.94    3.96</time>
   <time name="total">    4.03    4.04</time>
   <energy>
    <i name="e_fr_energy">   -118.73133858 </i>
    <i name="e_wo_entrp">   -118.72067633 </i>
    <i name="e_0_energy">   -118.72600745 </i>
   </energy>
  </scstep>
  <scstep>
   <time name="dav">    3.39    3.40</time>
   <time name="total">    3.40    3.41</time>
   <energy>
    <i name="alphaZ">     -7.15233657 </i>
    <i name="ewald">  -2426.95707451 </i>
    <i name="hartreedc">     -4.00167498 </i>
    <i name="XCdc">   -830.02999467 </i>
    <i name="pawpsdc">   5346.84942019 </i>
    <i name="pawaedc">  -4325.26449871 </i>
    <i name="eentropy">     -0.01066218 </i>
    <i name="bandstr">    414.61455101 </i>
    <i name="atom">   1713.22093829 </i>
    <i name="e_fr_energy">   -118.73133212 </i>
    <i name="e_wo_entrp">   -118.72066994 </i>
    <i name="e_0_energy">   -118.72600103 </i>
   </energy>
  </scstep>
  <structure>
   <crystal>
    <varray name="basis" >
     <v>       7.83452155       0.00000000       0.00000000 </v>
     <v>       0.00000000       7.83452155       0.00000000 </v>
     <v>       0.00000000       0.00000000       7.83452155 </v>
    </varray>
    <i name="volume">    480.88080072 </i>
    <varray name="rec_basis" >
     <v>       0.12764021       0.00000000       0.00000000 </v>
     <v>       0.00000000       0.12764021       0.00000000 </v>
     <v>       0.00000000       0.00000000       0.12764021 </v>
    </varray>
   </crystal>
   <varray name="positions" >
    <v>       0.00127640       0.00000000       0.00000000 </v>
    <v>       0.50000000       0.00000000       0.00000000 </v>
    <v>       0.00000000       0.50000000       0.00000000 </v>
    <v>       0.50000000       0.50000000       0.00000000 </v>
    <v>       0.00000000       0.00000000       0.50000000 </v>
    <v>       0.50000000       0.00000000       0.50000000 </v>
    <v>       0.00000000       0.50000000       0.50000000 </v>
    <v>       0.50000000       0.50000000       0.50000000 </v>
    <v>       0.00000000       0.25000000       0.25000000 </v>
    <v>       0.50000000       0.25000000       0.25000000 </v>
    <v>       0.00000000       0.75000000       0.25000000 </v>
    <v>       0.50000000       0.75000000       0.25000000 </v>
    <v>       0.00000000       0.25000000       0.75000000 </v>
    <v>       0.50000000       0.25000000       0.75000000 </v>
    <v>       0.00000000       0.75000000       0.75000000 </v>
    <v>       0.50000000       0.75000000       0.75000000 </v>
    <v>       0.25000000       0.00000000       0.25000000 </v>
    <v>       0.75000000       0.00000000       0.25000000 </v>
    <v>       0.25000000       0.50000000       0.25000000 </v>
    <v>       0.75000000       0.50000000       0.25000000 </v>
    <v>       0.25000000       0.00000000       0.75000000 </v>
    <v>       0.75000000       0.00000000       0.75000000 </v>
    <v>       0.25000000       0.50000000       0.75000000 </v>
    <v>       0.75000000       0.50000000       0.75000000 </v>
    <v>       0.25000000       0.25000000       0.00000000 </v>
    <v>       0.75000000       0.25000000       0.00000000 </v>
    <v>       0.25000000       0.75000000       0.00000000 </v>
    <v>       0.75000000       0.75000000       0.00000000 </v>
    <v>       0.25000000       0.25000000       0.50000000 </v>
    <v>       0.75000000       0.25000000       0.50000000 </v>
    <v>       0.25000000       0.75000000       0.50000000 </v>
    <v>       0.75000000       0.75000000       0.50000000 </v>
   </varray>
  </structure>
  <varray name="forces" >
   <v>      -0.06657221       0.00000000       0.00000000 </v>
   <v>       0.00259262       0.00000000       0.00000000 </v>
   <v>      -0.00037964       0.00000000       0.00000000 </v>
   <v>       0.00061695       0.00000000       0.00000000 </v>
   <v>      -0.00037964       0.00000000       0.00000000 </v>
   <v>       0.00061695       0.00000000       0.00000000 </v>
   <v>      -0.00027364       0.00000000       0.00000000 </v>
   <v>      -0.00084080       0.00000000       0.00000000 </v>
   <v>      -0.00168144      -0.00003398      -0.00003398 </v>
   <v>      -0.00032221       0.00000206       0.00000206 </v>
   <v>      -0.00168144       0.00003398      -0.00003398 </v>
   <v>      -0.00032221      -0.00000206       0.00000206 </v>
   <v>      -0.00168144      -0.00003398       0.00003398 </v>
   <v>      -0.00032221       0.00000206      -0.00000206 </v>
   <v>      -0.00168144       0.00003398       0.00003398 </v>
   <v>      -0.00032221      -0.00000206      -0.00000206 </v>
   <v>       0.00889689       0.00000000       0.00951428 </v>
   <v>       0.00872478       0.00000000      -0.00925731 </v>
   <v>       0.00026772       0.00000000      -0.00017959 </v>
   <v>       0.00026913       0.00000000       0.00018030 </v>
   <v>       0.00889689       0.00000000      -0.00951428 </v>
   <v>       0.00872478       0.00000000       0.00925731 </v>
   <v>       0.00026772       0.00000000       0.00017959 </v>
   <v>       0.00026913       0.00000000      -0.00018030 </v>
   <v>       0.00889689       0.00951428       0.00000000 </v>
   <v>       0.00872478      -0.00925731       0.00000000 </v>
   <v>       0.00889689      -0.00951428       0.00000000 </v>
   <v>       0.00872478       0.00925731       0.00000000 </v>
   <v>       0.00026772      -0.00017959       0.00000000 </v>
   <v>       0.00026913       0.00018030       0.00000000 </v>
   <v>       0.00026772       0.00017959       0.00000000 </v>
   <v>       0.00026913      -0.00018030       0.00000000 </v>
  </varray>
  <varray name="stress" >
   <v>      88.57185071       0.00000000       0.00000000 </v>
   <v>      -0.00000000      88.57195008       0.00000000 </v>
   <v>       0.00000000       0.00000000      88.57195008 </v>
  </varray>
  <energy>
   <i name="e_fr_energy">   -118.73133212 </i>
   <i name="e_wo_entrp">   -118.72066994 </i>
   <i name="e_0_energy">   -118.72600103 </i>
  </energy>
  <time name="totalsc">   53.35   54.04</time>
  <eigenvalues>
   <array>
    <dimension dim="1">band</dimension>
    <dimension dim="2">kpoint</dimension>
    <dimension dim="3">spin</dimension>
    <field>eigene</field>
    <field>occ</field>
    <set>
     <set comment="spin 1">
      <set comment="kpoint 1">
       <r>   -2.7851    1.0000 </r>
       <r>   -0.4007    1.0000 </r>
       <r>   -0.3968    1.0000 </r>
       <r>   -0.3968    1.0000 </r>
       <r>   -0.3968    1.0000 </r>
       <r>   -0.3968    1.0000 </r>
       <r>   -0.3929    1.0000 </r>
       <r>    1.9407    1.0000 </r>
       <r>    1.9452    1.0000 </r>
       <r>    1.9452    1.0000 </r>
       <r>    1.9470    1.0000 </r>
       <r>    1.9472    1.0000 </r>
       <r>    1.9472    1.0000 </r>
       <r>    1.9472    1.0000 </r>
       <r>    1.9472    1.0000 </r>
       <r>    1.9474    1.0000 </r>
       <r>    1.9492    1.0000 </r>
       <r>    1.9492    1.0000 </r>
       <r>    1.9536    1.0000 </r>
       <r>    4.0389    1.0000 </r>
       <r>    4.0389    1.0000 </r>
       <r>    4.0389    1.0000 </r>
       <r>    4.0389    1.0000 </r>
       <r>    4.5011    1.0000 </r>
       <r>    4.5011    1.0000 </r>
       <r>    4.5011    1.0000 </r>
       <r>    4.5011    1.0000 </r>
       <r>    5.8615    1.0000 </r>
       <r>    5.8615    1.0000 </r>
       <r>    5.8615    1.0000 </r>
       <r>    7.3781    1.0000 </r>
       <r>    7.3782    1.0000 </r>
       <r>    7.3782    1.0000 </r>
       <r>    8.0423    1.0000 </r>
       <r>    8.0423    1.0000 </r>
       <r>    8.0469    1.0000 </r>
       <r>    8.0469    1.0000 </r>
       <r>    8.0470    1.0000 </r>
       <r>    8.0470    1.0000 </r>
       <r>    8.0470    1.0000 </r>
       <r>    8.0471    1.0000 </r>
       <r>    8.0471    1.0000 </r>
       <r>    8.0471    1.0000 </r>
       <r>    8.0517    1.0000 </r>
       <r>    8.0517    1.0000 </r>
       <r>    9.0044    0.6804 </r>
       <r>    9.0089    0.6342 </r>
       <r>    9.0089    0.6341 </r>
       <r>    9.0089    0.6341 </r>
       <r>    9.0089    0.6341 </r>
       <r>    9.0133    0.5864 </r>
       <r>   10.2398    0.0000 </r>
       <r>   10.2398    0.0000 </r>
       <r>   10.2413    0.0000 </r>
       <r>   10.2439    0.0000 </r>
       <r>   10.2441    0.0000 </r>
       <r>   10.2441    0.0000 </r>
       <r>   10.2441    0.0000 </r>
       <r>   10.2441    0.0000 </r>
       <r>   10.2442    0.0000 </r>
       <r>   10.2469    0.0000 </r>
       <r>   10.2483    0.0000 </r>
       <r>   10.2483    0.0000 </r>
       <r>   10.6596    0.0000 </r>
       <r>   10.6608    0.0000 </r>
       <r>   10.6608    0.0000 </r>
       <r>   10.6608    0.0000 </r>
       <r>   10.6608    0.0000 </r>
       <r>   10.6620    0.0000 </r>
       <r>   12.0530    0.0000 </r>
       <r>   12.0545    0.0000 </r>
       <r>   12.0548    0.0000 </r>
      </set>
      <set comment="kpoint 2">
       <r>   -2.7475    1.0000 </r>
       <r>   -0.9525    1.0000 </r>
       <r>   -0.3599    1.0000 </r>
       <r>   -0.3598    1.0000 </r>
       <r>   -0.3598    1.0000 </r>
       <r>   -0.3598    1.0000 </r>
       <r>    0.2299    1.0000 </r>
       <r>    1.4019    1.0000 </r>
       <r>    1.4019    1.0000 </r>
       <r>    1.4019    1.0000 </r>
       <r>    1.4019    1.0000 </r>
       <r>    1.9834    1.0000 </r>
       <r>    1.9834    1.0000 </r>
       <r>    1.9834    1.0000 </r>
       <r>    1.9834    1.0000 </r>
       <r>    2.5619    1.0000 </r>
       <r>    2.5619    1.0000 </r>
       <r>    2.5619    1.0000 </r>
       <r>    2.5619    1.0000 </r>
       <r>    3.6860    1.0000 </r>
       <r>    3.6860    1.0000 </r>
       <r>    3.6860    1.0000 </r>
       <r>    3.6860    1.0000 </r>
       <r>    4.9231    1.0000 </r>
       <r>    4.9231    1.0000 </r>
       <r>    4.9231    1.0000 </r>
       <r>    4.9231    1.0000 </r>
       <r>    5.2826    1.0000 </r>
       <r>    5.8956    1.0000 </r>
       <r>    5.8956    1.0000 </r>
       <r>    7.4131    1.0000 </r>
       <r>    7.4132    1.0000 </r>
       <r>    7.4744    1.0000 </r>
       <r>    7.4744    1.0000 </r>
       <r>    7.4744    1.0000 </r>
       <r>    7.4745    1.0000 </r>
       <r>    7.5339    1.0000 </r>
       <r>    7.5339    1.0000 </r>
       <r>    8.0208    1.0000 </r>
       <r>    8.0813    1.0000 </r>
       <r>    8.0813    1.0000 </r>
       <r>    8.0813    1.0000 </r>
       <r>    8.0813    1.0000 </r>
       <r>    8.6291    1.0000 </r>
       <r>    8.6291    1.0000 </r>
       <r>    8.8608    1.0000 </r>
       <r>    8.8608    1.0000 </r>
       <r>    9.3909    0.0000 </r>
       <r>    9.3909    0.0000 </r>
       <r>    9.3909    0.0000 </r>
       <r>    9.3909    0.0000 </r>
       <r>    9.7282    0.0000 </r>
       <r>    9.7282    0.0000 </r>
       <r>    9.7284    0.0000 </r>
       <r>    9.7285    0.0000 </r>
       <r>    9.7442    0.0000 </r>
       <r>    9.7442    0.0000 </r>
       <r>    9.7445    0.0000 </r>
       <r>    9.7445    0.0000 </r>
       <r>   10.8289    0.0000 </r>
       <r>   10.8289    0.0000 </r>
       <r>   10.8289    0.0000 </r>
       <r>   10.8290    0.0000 </r>
       <r>   10.8722    0.0000 </r>
       <r>   10.8723    0.0000 </r>
       <r>   10.9504    0.0000 </r>
       <r>   10.9504    0.0000 </r>
       <r>   10.9505    0.0000 </r>
       <r>   10.9505    0.0000 </r>
       <r>   11.5316    0.0000 </r>
       <r>   11.5316    0.0000 </r>
       <r>   11.5316    0.0000 </r>
      </set>
      <set comment="kpoint 3">
       <r>   -2.7475    1.0000 </r>
       <r>   -0.9525    1.0000 </r>
       <r>   -0.3629    1.0000 </r>
       <r>   -0.3598    1.0000 </r>
       <r>   -0.3598    1.0000 </r>
       <r>   -0.3568    1.0000 </r>
       <r>    0.2298    1.0000 </r>
       <r>    1.3989    1.0000 </r>
       <r>    1.4019    1.0000 </r>
       <r>    1.4019    1.0000 </r>
       <r>    1.4049    1.0000 </r>
       <r>    1.9812    1.0000 </r>
       <r>    1.9822    1.0000 </r>
       <r>    1.9847    1.0000 </r>
       <r>    1.9856    1.0000 </r>
       <r>    2.5589    1.0000 </r>
       <r>    2.5619    1.0000 </r>
       <r>    2.5619    1.0000 </r>
       <r>    2.5650    1.0000 </r>
       <r>    3.6840    1.0000 </r>
       <r>    3.6848    1.0000 </r>
       <r>    3.6872    1.0000 </r>
       <r>    3.6881    1.0000 </r>
       <r>    4.9210    1.0000 </r>
       <r>    4.9219    1.0000 </r>
       <r>    4.9243    1.0000 </r>
       <r>    4.9252    1.0000 </r>
       <r>    5.2826    1.0000 </r>
       <r>    5.8956    1.0000 </r>
       <r>    5.8956    1.0000 </r>
       <r>    7.4132    1.0000 </r>
       <r>    7.4132    1.0000 </r>
       <r>    7.4710    1.0000 </r>
       <r>    7.4744    1.0000 </r>
       <r>    7.4744    1.0000 </r>
       <r>    7.4777    1.0000 </r>
       <r>    7.5338    1.0000 </r>
       <r>    7.5340    1.0000 </r>
       <r>    8.0208    1.0000 </r>
       <r>    8.0784    1.0000 </r>
       <r>    8.0813    1.0000 </r>
       <r>    8.0813    1.0000 </r>
       <r>    8.0841    1.0000 </r>
       <r>    8.6291    1.0000 </r>
       <r>    8.6291    1.0000 </r>
       <r>    8.8608    1.0000 </r>
       <r>    8.8608    1.0000 </r>
       <r>    9.3880    0.0000 </r>
       <r>    9.3909    0.0000 </r>
       <r>    9.3909    0.0000 </r>
       <r>    9.3939    0.0000 </r>
       <r>    9.7254    0.0000 </r>
       <r>    9.7283    0.0000 </r>
       <r>    9.7285    0.0000 </r>
       <r>    9.7313    0.0000 </r>
       <r>    9.7415    0.0000 </r>
       <r>    9.7430    0.0000 </r>
       <r>    9.7456    0.0000 </r>
       <r>    9.7470    0.0000 </r>
       <r>   10.8259    0.0000 </r>
       <r>   10.8289    0.0000 </r>
       <r>   10.8289    0.0000 </r>
       <r>   10.8319    0.0000 </r>
       <r>   10.8722    0.0000 </r>
       <r>   10.8723    0.0000 </r>
       <r>   10.9492    0.0000 </r>
       <r>   10.9504    0.0000 </r>
       <r>   10.9505    0.0000 </r>
       <r>   10.9517    0.0000 </r>
       <r>   11.5298    0.0000 </r>
       <r>   11.5316    0.0000 </r>
       <r>   11.5326    0.0000 </r>
      </set>
      <set comment="kpoint 4">
       <r>   -2.6345    1.0000 </r>
       <r>   -1.4361    1.0000 </r>
       <r>   -0.2490    1.0000 </r>
       <r>   -0.2490    1.0000 </r>
       <r>   -0.2490    1.0000 </r>
       <r>   -0.2490    1.0000 </r>
       <r>    0.9240    1.0000 </r>
       <r>    0.9272    1.0000 </r>
       <r>    0.9272    1.0000 </r>
       <r>    0.9273    1.0000 </r>
       <r>    0.9293    1.0000 </r>
       <r>    2.0921    1.0000 </r>
       <r>    2.0921    1.0000 </r>
       <r>    2.0921    1.0000 </r>
       <r>    2.0921    1.0000 </r>
       <r>    3.2373    1.0000 </r>
       <r>    3.2384    1.0000 </r>
       <r>    3.2384    1.0000 </r>
       <r>    3.2387    1.0000 </r>
       <r>    3.2444    1.0000 </r>
       <r>    3.2448    1.0000 </r>
       <r>    3.2448    1.0000 </r>
       <r>    3.2459    1.0000 </r>
       <r>    4.3460    1.0000 </r>
       <r>    5.5774    1.0000 </r>
       <r>    5.5774    1.0000 </r>
       <r>    5.5774    1.0000 </r>
       <r>    5.5774    1.0000 </r>
       <r>    5.9978    1.0000 </r>
       <r>    5.9978    1.0000 </r>
       <r>    6.5745    1.0000 </r>
       <r>    6.5745    1.0000 </r>
       <r>    6.5745    1.0000 </r>
       <r>    6.5745    1.0000 </r>
       <r>    7.0895    1.0000 </r>
       <r>    7.0895    1.0000 </r>
       <r>    7.5183    1.0000 </r>
       <r>    7.5183    1.0000 </r>
       <r>    8.1841    1.0000 </r>
       <r>    8.1841    1.0000 </r>
       <r>    8.1841    1.0000 </r>
       <r>    8.1841    1.0000 </r>
       <r>    8.5502    1.0000 </r>
       <r>    8.5502    1.0000 </r>
       <r>    8.8683    1.0000 </r>
       <r>    8.8683    1.0000 </r>
       <r>    8.8683    1.0000 </r>
       <r>    8.8684    1.0000 </r>
       <r>    9.1489    0.0001 </r>
       <r>    9.2786    0.0000 </r>
       <r>    9.2786    0.0000 </r>
       <r>    9.2820    0.0000 </r>
       <r>    9.2820    0.0000 </r>
       <r>    9.2837    0.0000 </r>
       <r>    9.2837    0.0000 </r>
       <r>    9.7646    0.0000 </r>
       <r>    9.7646    0.0000 </r>
       <r>    9.7647    0.0000 </r>
       <r>    9.7647    0.0000 </r>
       <r>   11.0706    0.0000 </r>
       <r>   11.0706    0.0000 </r>
       <r>   11.0706    0.0000 </r>
       <r>   11.0707    0.0000 </r>
       <r>   11.3718    0.0000 </r>
       <r>   11.3718    0.0000 </r>
       <r>   11.4828    0.0000 </r>
       <r>   11.4828    0.0000 </r>
       <r>   11.4828    0.0000 </r>
       <r>   11.4828    0.0000 </r>
       <r>   11.7736    0.0000 </r>
       <r>   11.7737    0.0000 </r>
       <r>   11.7737    0.0000 </r>
      </set>
      <set comment="kpoint 5">
       <r>   -2.6345    1.0000 </r>
       <r>   -1.4361    1.0000 </r>
       <r>   -0.2520    1.0000 </r>
       <r>   -0.2490    1.0000 </r>
       <r>   -0.2490    1.0000 </r>
       <r>   -0.2460    1.0000 </r>
       <r>    0.9240    1.0000 </r>
       <r>    0.9262    1.0000 </r>
       <r>    0.9272    1.0000 </r>
       <r>    0.9272    1.0000 </r>
       <r>    0.9304    1.0000 </r>
       <r>    2.0899    1.0000 </r>
       <r>    2.0908    1.0000 </r>
       <r>    2.0934    1.0000 </r>
       <r>    2.0943    1.0000 </r>
       <r>    3.2364    1.0000 </r>
       <r>    3.2374    1.0000 </r>
       <r>    3.2399    1.0000 </r>
       <r>    3.2405    1.0000 </r>
       <r>    3.2417    1.0000 </r>
       <r>    3.2444    1.0000 </r>
       <r>    3.2445    1.0000 </r>
       <r>    3.2476    1.0000 </r>
       <r>    4.3460    1.0000 </r>
       <r>    5.5752    1.0000 </r>
       <r>    5.5761    1.0000 </r>
       <r>    5.5787    1.0000 </r>
       <r>    5.5796    1.0000 </r>
       <r>    5.9978    1.0000 </r>
       <r>    5.9978    1.0000 </r>
       <r>    6.5712    1.0000 </r>
       <r>    6.5745    1.0000 </r>
       <r>    6.5745    1.0000 </r>
       <r>    6.5778    1.0000 </r>
       <r>    7.0895    1.0000 </r>
       <r>    7.0895    1.0000 </r>
       <r>    7.5183    1.0000 </r>
       <r>    7.5183    1.0000 </r>
       <r>    8.1812    1.0000 </r>
       <r>    8.1841    1.0000 </r>
       <r>    8.1841    1.0000 </r>
       <r>    8.1870    1.0000 </r>
       <r>    8.5502    1.0000 </r>
       <r>    8.5502    1.0000 </r>
       <r>    8.8658    1.0000 </r>
       <r>    8.8670    1.0000 </r>
       <r>    8.8696    1.0000 </r>
       <r>    8.8709    1.0000 </r>
       <r>    9.1489    0.0001 </r>
       <r>    9.2783    0.0000 </r>
       <r>    9.2803    0.0000 </r>
       <r>    9.2807    0.0000 </r>
       <r>    9.2820    0.0000 </r>
       <r>    9.2820    0.0000 </r>
       <r>    9.2852    0.0000 </r>
       <r>    9.7619    0.0000 </r>
       <r>    9.7646    0.0000 </r>
       <r>    9.7646    0.0000 </r>
       <r>    9.7673    0.0000 </r>
       <r>   11.0681    0.0000 </r>
       <r>   11.0706    0.0000 </r>
       <r>   11.0707    0.0000 </r>
       <r>   11.0732    0.0000 </r>
       <r>   11.3717    0.0000 </r>
       <r>   11.3718    0.0000 </r>
       <r>   11.4798    0.0000 </r>
       <r>   11.4828    0.0000 </r>
       <r>   11.4829    0.0000 </r>
       <r>   11.4858    0.0000 </r>
       <r>   11.7718    0.0000 </r>
       <r>   11.7736    0.0000 </r>
       <r>   11.7753    0.0000 </r>
      </set>
      <set comment="kpoint 6">
       <r>   -2.4465    1.0000 </r>
       <r>   -1.8468    1.0000 </r>
       <r>   -0.0646    1.0000 </r>
       <r>   -0.0645    1.0000 </r>
       <r>   -0.0645    1.0000 </r>
       <r>   -0.0645    1.0000 </r>
       <r>    0.5241    1.0000 </r>
       <r>    0.5241    1.0000 </r>
       <r>    0.5241    1.0000 </r>
       <r>    0.5242    1.0000 </r>
       <r>    1.6902    1.0000 </r>
       <r>    2.2729    1.0000 </r>
       <r>    2.2729    1.0000 </r>
       <r>    2.2729    1.0000 </r>
       <r>    2.2729    1.0000 </r>
       <r>    2.8481    1.0000 </r>
       <r>    2.8481    1.0000 </r>
       <r>    2.8481    1.0000 </r>
       <r>    2.8481    1.0000 </r>
       <r>    3.4087    1.0000 </r>
       <r>    3.9925    1.0000 </r>
       <r>    3.9925    1.0000 </r>
       <r>    3.9925    1.0000 </r>
       <r>    3.9925    1.0000 </r>
       <r>    5.6681    1.0000 </r>
       <r>    5.6681    1.0000 </r>
       <r>    5.6681    1.0000 </r>
       <r>    5.6681    1.0000 </r>
       <r>    6.1681    1.0000 </r>
       <r>    6.1681    1.0000 </r>
       <r>    6.3116    1.0000 </r>
       <r>    6.3116    1.0000 </r>
       <r>    6.3116    1.0000 </r>
       <r>    6.3116    1.0000 </r>
       <r>    6.7139    1.0000 </r>
       <r>    6.7139    1.0000 </r>
       <r>    7.6914    1.0000 </r>
       <r>    7.6914    1.0000 </r>
       <r>    7.9701    1.0000 </r>
       <r>    7.9701    1.0000 </r>
       <r>    7.9701    1.0000 </r>
       <r>    7.9701    1.0000 </r>
       <r>    8.2213    1.0000 </r>
       <r>    8.2214    1.0000 </r>
       <r>    8.3555    1.0000 </r>
       <r>    8.3555    1.0000 </r>
       <r>    8.3555    1.0000 </r>
       <r>    8.3555    1.0000 </r>
       <r>    8.9043    0.9995 </r>
       <r>    8.9044    0.9995 </r>
       <r>    8.9044    0.9995 </r>
       <r>    8.9044    0.9995 </r>
       <r>   10.0006    0.0000 </r>
       <r>   10.0006    0.0000 </r>
       <r>   10.0425    0.0000 </r>
       <r>   10.0425    0.0000 </r>
       <r>   10.0425    0.0000 </r>
       <r>   10.0425    0.0000 </r>
       <r>   10.4051    0.0000 </r>
       <r>   10.6719    0.0000 </r>
       <r>   10.6719    0.0000 </r>
       <r>   10.6719    0.0000 </r>
       <r>   10.6720    0.0000 </r>
       <r>   11.6462    0.0000 </r>
       <r>   11.6462    0.0000 </r>
       <r>   12.0107    0.0000 </r>
       <r>   12.0107    0.0000 </r>
       <r>   12.2058    0.0000 </r>
       <r>   12.2058    0.0000 </r>
       <r>   12.2058    0.0000 </r>
       <r>   12.2058    0.0000 </r>
       <r>   12.8952    0.0000 </r>
      </set>
      <set comment="kpoint 7">
       <r>   -2.4465    1.0000 </r>
       <r>   -1.8468    1.0000 </r>
       <r>   -0.0675    1.0000 </r>
       <r>   -0.0645    1.0000 </r>
       <r>   -0.0645    1.0000 </r>
       <r>   -0.0615    1.0000 </r>
       <r>    0.5211    1.0000 </r>
       <r>    0.5241    1.0000 </r>
       <r>    0.5241    1.0000 </r>
       <r>    0.5272    1.0000 </r>
       <r>    1.6902    1.0000 </r>
       <r>    2.2707    1.0000 </r>
       <r>    2.2717    1.0000 </r>
       <r>    2.2742    1.0000 </r>
       <r>    2.2751    1.0000 </r>
       <r>    2.8460    1.0000 </r>
       <r>    2.8469    1.0000 </r>
       <r>    2.8494    1.0000 </r>
       <r>    2.8503    1.0000 </r>
       <r>    3.4087    1.0000 </r>
       <r>    3.9894    1.0000 </r>
       <r>    3.9925    1.0000 </r>
       <r>    3.9925    1.0000 </r>
       <r>    3.9956    1.0000 </r>
       <r>    5.6649    1.0000 </r>
       <r>    5.6681    1.0000 </r>
       <r>    5.6681    1.0000 </r>
       <r>    5.6713    1.0000 </r>
       <r>    6.1681    1.0000 </r>
       <r>    6.1682    1.0000 </r>
       <r>    6.3093    1.0000 </r>
       <r>    6.3103    1.0000 </r>
       <r>    6.3129    1.0000 </r>
       <r>    6.3139    1.0000 </r>
       <r>    6.7139    1.0000 </r>
       <r>    6.7139    1.0000 </r>
       <r>    7.6913    1.0000 </r>
       <r>    7.6914    1.0000 </r>
       <r>    7.9677    1.0000 </r>
       <r>    7.9688    1.0000 </r>
       <r>    7.9714    1.0000 </r>
       <r>    7.9725    1.0000 </r>
       <r>    8.2213    1.0000 </r>
       <r>    8.2213    1.0000 </r>
       <r>    8.3526    1.0000 </r>
       <r>    8.3555    1.0000 </r>
       <r>    8.3555    1.0000 </r>
       <r>    8.3584    1.0000 </r>
       <r>    8.9014    0.9996 </r>
       <r>    8.9043    0.9995 </r>
       <r>    8.9044    0.9995 </r>
       <r>    8.9073    0.9994 </r>
       <r>   10.0005    0.0000 </r>
       <r>   10.0006    0.0000 </r>
       <r>   10.0399    0.0000 </r>
       <r>   10.0425    0.0000 </r>
       <r>   10.0425    0.0000 </r>
       <r>   10.0451    0.0000 </r>
       <r>   10.4051    0.0000 </r>
       <r>   10.6694    0.0000 </r>
       <r>   10.6719    0.0000 </r>
       <r>   10.6719    0.0000 </r>
       <r>   10.6745    0.0000 </r>
       <r>   11.6462    0.0000 </r>
       <r>   11.6462    0.0000 </r>
       <r>   12.0107    0.0000 </r>
       <r>   12.0107    0.0000 </r>
       <r>   12.2027    0.0000 </r>
       <r>   12.2058    0.0000 </r>
       <r>   12.2058    0.0000 </r>
       <r>   12.2088    0.0000 </r>
       <r>   12.8957    0.0000 </r>
      </set>
      <set comment="kpoint 8">
       <r>   -2.1854    1.0000 </r>
       <r>   -2.1822    1.0000 </r>
       <r>    0.1891    1.0000 </r>
       <r>    0.1924    1.0000 </r>
       <r>    0.1924    1.0000 </r>
       <r>    0.1932    1.0000 </r>
       <r>    0.1935    1.0000 </r>
       <r>    0.1943    1.0000 </r>
       <r>    0.1943    1.0000 </r>
       <r>    0.1976    1.0000 </r>
       <r>    2.5169    1.0000 </r>
       <r>    2.5195    1.0000 </r>
       <r>    2.5236    1.0000 </r>
       <r>    2.5239    1.0000 </r>
       <r>    2.5239    1.0000 </r>
       <r>    2.5247    1.0000 </r>
       <r>    2.5259    1.0000 </r>
       <r>    2.5267    1.0000 </r>
       <r>    2.5267    1.0000 </r>
       <r>    2.5294    1.0000 </r>
       <r>    4.8016    1.0000 </r>
       <r>    4.8016    1.0000 </r>
       <r>    4.8022    1.0000 </r>
       <r>    4.8024    1.0000 </r>
       <r>    4.8028    1.0000 </r>
       <r>    4.8029    1.0000 </r>
       <r>    4.8035    1.0000 </r>
       <r>    4.8035    1.0000 </r>
       <r>    6.4051    1.0000 </r>
       <r>    6.4051    1.0000 </r>
       <r>    6.4085    1.0000 </r>
       <r>    6.4085    1.0000 </r>
       <r>    7.1111    1.0000 </r>
       <r>    7.1111    1.0000 </r>
       <r>    7.1114    1.0000 </r>
       <r>    7.1120    1.0000 </r>
       <r>    7.1121    1.0000 </r>
       <r>    7.1128    1.0000 </r>
       <r>    7.1131    1.0000 </r>
       <r>    7.1131    1.0000 </r>
       <r>    7.9263    1.0000 </r>
       <r>    7.9276    1.0000 </r>
       <r>    7.9294    1.0000 </r>
       <r>    7.9307    1.0000 </r>
       <r>    8.5930    1.0000 </r>
       <r>    8.5930    1.0000 </r>
       <r>    8.5939    1.0000 </r>
       <r>    8.5954    1.0000 </r>
       <r>    8.5957    1.0000 </r>
       <r>    8.5972    1.0000 </r>
       <r>    8.5981    1.0000 </r>
       <r>    8.5981    1.0000 </r>
       <r>   10.3304    0.0000 </r>
       <r>   10.3312    0.0000 </r>
       <r>   10.3312    0.0000 </r>
       <r>   10.3314    0.0000 </r>
       <r>   10.3340    0.0000 </r>
       <r>   10.3342    0.0000 </r>
       <r>   10.3342    0.0000 </r>
       <r>   10.3351    0.0000 </r>
       <r>   10.7884    0.0000 </r>
       <r>   10.7884    0.0000 </r>
       <r>   10.7907    0.0000 </r>
       <r>   10.7907    0.0000 </r>
       <r>   11.7406    0.0000 </r>
       <r>   11.7416    0.0000 </r>
       <r>   12.7238    0.0000 </r>
       <r>   12.7240    0.0000 </r>
       <r>   12.7257    0.0000 </r>
       <r>   12.7259    0.0000 </r>
       <r>   12.9977    0.0000 </r>
       <r>   12.9983    0.0000 </r>
      </set>
      <set comment="kpoint 9">
       <r>   -2.1838    1.0000 </r>
       <r>   -2.1838    1.0000 </r>
       <r>    0.1879    1.0000 </r>
       <r>    0.1928    1.0000 </r>
       <r>    0.1934    1.0000 </r>
       <r>    0.1934    1.0000 </r>
       <r>    0.1934    1.0000 </r>
       <r>    0.1934    1.0000 </r>
       <r>    0.1940    1.0000 </r>
       <r>    0.1988    1.0000 </r>
       <r>    2.5178    1.0000 </r>
       <r>    2.5192    1.0000 </r>
       <r>    2.5227    1.0000 </r>
       <r>    2.5230    1.0000 </r>
       <r>    2.5248    1.0000 </r>
       <r>    2.5251    1.0000 </r>
       <r>    2.5256    1.0000 </r>
       <r>    2.5260    1.0000 </r>
       <r>    2.5276    1.0000 </r>
       <r>    2.5296    1.0000 </r>
       <r>    4.7991    1.0000 </r>
       <r>    4.7997    1.0000 </r>
       <r>    4.8025    1.0000 </r>
       <r>    4.8025    1.0000 </r>
       <r>    4.8026    1.0000 </r>
       <r>    4.8026    1.0000 </r>
       <r>    4.8054    1.0000 </r>
       <r>    4.8060    1.0000 </r>
       <r>    6.4068    1.0000 </r>
       <r>    6.4068    1.0000 </r>
       <r>    6.4068    1.0000 </r>
       <r>    6.4069    1.0000 </r>
       <r>    7.1089    1.0000 </r>
       <r>    7.1107    1.0000 </r>
       <r>    7.1107    1.0000 </r>
       <r>    7.1109    1.0000 </r>
       <r>    7.1133    1.0000 </r>
       <r>    7.1135    1.0000 </r>
       <r>    7.1135    1.0000 </r>
       <r>    7.1153    1.0000 </r>
       <r>    7.9284    1.0000 </r>
       <r>    7.9285    1.0000 </r>
       <r>    7.9285    1.0000 </r>
       <r>    7.9285    1.0000 </r>
       <r>    8.5903    1.0000 </r>
       <r>    8.5950    1.0000 </r>
       <r>    8.5955    1.0000 </r>
       <r>    8.5956    1.0000 </r>
       <r>    8.5956    1.0000 </r>
       <r>    8.5956    1.0000 </r>
       <r>    8.5961    1.0000 </r>
       <r>    8.6008    1.0000 </r>
       <r>   10.3283    0.0000 </r>
       <r>   10.3321    0.0000 </r>
       <r>   10.3327    0.0000 </r>
       <r>   10.3327    0.0000 </r>
       <r>   10.3327    0.0000 </r>
       <r>   10.3327    0.0000 </r>
       <r>   10.3333    0.0000 </r>
       <r>   10.3371    0.0000 </r>
       <r>   10.7895    0.0000 </r>
       <r>   10.7895    0.0000 </r>
       <r>   10.7895    0.0000 </r>
       <r>   10.7895    0.0000 </r>
       <r>   11.7412    0.0000 </r>
       <r>   11.7412    0.0000 </r>
       <r>   12.7248    0.0000 </r>
       <r>   12.7248    0.0000 </r>
       <r>   12.7249    0.0000 </r>
       <r>   12.7249    0.0000 </r>
       <r>   12.9971    0.0000 </r>
       <r>   12.9981    0.0000 </r>
      </set>
      <set comment="kpoint 10">
       <r>   -2.7098    1.0000 </r>
       <r>   -0.9166    1.0000 </r>
       <r>   -0.9141    1.0000 </r>
       <r>   -0.3229    1.0000 </r>
       <r>   -0.3229    1.0000 </r>
       <r>    0.2654    1.0000 </r>
       <r>    0.2679    1.0000 </r>
       <r>    0.8542    1.0000 </r>
       <r>    1.4366    1.0000 </r>
       <r>    1.4376    1.0000 </r>
       <r>    1.4391    1.0000 </r>
       <r>    1.4401    1.0000 </r>
       <r>    2.0190    1.0000 </r>
       <r>    2.0199    1.0000 </r>
       <r>    2.5962    1.0000 </r>
       <r>    2.5971    1.0000 </r>
       <r>    2.5987    1.0000 </r>
       <r>    2.5997    1.0000 </r>
       <r>    3.1672    1.0000 </r>
       <r>    3.1672    1.0000 </r>
       <r>    3.1732    1.0000 </r>
       <r>    4.1081    1.0000 </r>
       <r>    4.1081    1.0000 </r>
       <r>    4.5740    1.0000 </r>
       <r>    4.5740    1.0000 </r>
       <r>    5.3170    1.0000 </r>
       <r>    5.3178    1.0000 </r>
       <r>    5.5071    1.0000 </r>
       <r>    5.5071    1.0000 </r>
       <r>    5.9296    1.0000 </r>
       <r>    6.9694    1.0000 </r>
       <r>    6.9718    1.0000 </r>
       <r>    7.3787    1.0000 </r>
       <r>    7.3787    1.0000 </r>
       <r>    7.4481    1.0000 </r>
       <r>    7.5666    1.0000 </r>
       <r>    7.5695    1.0000 </r>
       <r>    7.6786    1.0000 </r>
       <r>    7.6786    1.0000 </r>
       <r>    8.0127    1.0000 </r>
       <r>    8.0149    1.0000 </r>
       <r>    8.0547    1.0000 </r>
       <r>    8.0556    1.0000 </r>
       <r>    8.6620    1.0000 </r>
       <r>    8.6649    1.0000 </r>
       <r>    9.1430    0.0003 </r>
       <r>    9.1450    0.0002 </r>
       <r>    9.2132    0.0000 </r>
       <r>    9.2235    0.0000 </r>
       <r>    9.2246    0.0000 </r>
       <r>    9.2261    0.0000 </r>
       <r>    9.2270    0.0000 </r>
       <r>    9.3920    0.0000 </r>
       <r>    9.3949    0.0000 </r>
       <r>    9.8179    0.0000 </r>
       <r>    9.8179    0.0000 </r>
       <r>   10.3118    0.0000 </r>
       <r>   10.3136    0.0000 </r>
       <r>   10.3301    0.0000 </r>
       <r>   10.3311    0.0000 </r>
       <r>   10.3317    0.0000 </r>
       <r>   10.3326    0.0000 </r>
       <r>   11.0017    0.0000 </r>
       <r>   11.0023    0.0000 </r>
       <r>   11.0092    0.0000 </r>
       <r>   11.1552    0.0000 </r>
       <r>   11.1552    0.0000 </r>
       <r>   11.3022    0.0000 </r>
       <r>   11.3041    0.0000 </r>
       <r>   11.4141    0.0000 </r>
       <r>   12.0976    0.0000 </r>
       <r>   12.0997    0.0000 </r>
      </set>
      <set comment="kpoint 11">
       <r>   -2.7098    1.0000 </r>
       <r>   -0.9154    1.0000 </r>
       <r>   -0.9154    1.0000 </r>
       <r>   -0.3246    1.0000 </r>
       <r>   -0.3212    1.0000 </r>
       <r>    0.2666    1.0000 </r>
       <r>    0.2666    1.0000 </r>
       <r>    0.8542    1.0000 </r>
       <r>    1.4356    1.0000 </r>
       <r>    1.4376    1.0000 </r>
       <r>    1.4391    1.0000 </r>
       <r>    1.4411    1.0000 </r>
       <r>    2.0195    1.0000 </r>
       <r>    2.0195    1.0000 </r>
       <r>    2.5952    1.0000 </r>
       <r>    2.5972    1.0000 </r>
       <r>    2.5986    1.0000 </r>
       <r>    2.6007    1.0000 </r>
       <r>    3.1655    1.0000 </r>
       <r>    3.1689    1.0000 </r>
       <r>    3.1732    1.0000 </r>
       <r>    4.1081    1.0000 </r>
       <r>    4.1081    1.0000 </r>
       <r>    4.5740    1.0000 </r>
       <r>    4.5741    1.0000 </r>
       <r>    5.3174    1.0000 </r>
       <r>    5.3174    1.0000 </r>
       <r>    5.5053    1.0000 </r>
       <r>    5.5088    1.0000 </r>
       <r>    5.9296    1.0000 </r>
       <r>    6.9706    1.0000 </r>
       <r>    6.9706    1.0000 </r>
       <r>    7.3787    1.0000 </r>
       <r>    7.3787    1.0000 </r>
       <r>    7.4481    1.0000 </r>
       <r>    7.5681    1.0000 </r>
       <r>    7.5681    1.0000 </r>
       <r>    7.6786    1.0000 </r>
       <r>    7.6787    1.0000 </r>
       <r>    8.0138    1.0000 </r>
       <r>    8.0139    1.0000 </r>
       <r>    8.0551    1.0000 </r>
       <r>    8.0551    1.0000 </r>
       <r>    8.6634    1.0000 </r>
       <r>    8.6635    1.0000 </r>
       <r>    9.1440    0.0003 </r>
       <r>    9.1440    0.0003 </r>
       <r>    9.2130    0.0000 </r>
       <r>    9.2224    0.0000 </r>
       <r>    9.2243    0.0000 </r>
       <r>    9.2262    0.0000 </r>
       <r>    9.2285    0.0000 </r>
       <r>    9.3934    0.0000 </r>
       <r>    9.3935    0.0000 </r>
       <r>    9.8179    0.0000 </r>
       <r>    9.8179    0.0000 </r>
       <r>   10.3124    0.0000 </r>
       <r>   10.3127    0.0000 </r>
       <r>   10.3292    0.0000 </r>
       <r>   10.3295    0.0000 </r>
       <r>   10.3331    0.0000 </r>
       <r>   10.3337    0.0000 </r>
       <r>   11.0021    0.0000 </r>
       <r>   11.0021    0.0000 </r>
       <r>   11.0091    0.0000 </r>
       <r>   11.1552    0.0000 </r>
       <r>   11.1552    0.0000 </r>
       <r>   11.3031    0.0000 </r>
       <r>   11.3031    0.0000 </r>
       <r>   11.4141    0.0000 </r>
       <r>   12.0977    0.0000 </r>
       <r>   12.1041    0.0000 </r>
      </set>
      <set comment="kpoint 12">
       <r>   -2.5969    1.0000 </r>
       <r>   -1.3989    1.0000 </r>
       <r>   -0.8041    1.0000 </r>
       <r>   -0.2121    1.0000 </r>
       <r>   -0.2121    1.0000 </r>
       <r>    0.3765    1.0000 </r>
       <r>    0.3778    1.0000 </r>
       <r>    0.9613    1.0000 </r>
       <r>    0.9638    1.0000 </r>
       <r>    0.9652    1.0000 </r>
       <r>    1.5467    1.0000 </r>
       <r>    1.5476    1.0000 </r>
       <r>    1.5481    1.0000 </r>
       <r>    2.7027    1.0000 </r>
       <r>    2.7043    1.0000 </r>
       <r>    2.7056    1.0000 </r>
       <r>    2.7059    1.0000 </r>
       <r>    2.7072    1.0000 </r>
       <r>    3.2801    1.0000 </r>
       <r>    3.2801    1.0000 </r>
       <r>    3.8273    1.0000 </r>
       <r>    3.8275    1.0000 </r>
       <r>    3.8518    1.0000 </r>
       <r>    4.3813    1.0000 </r>
       <r>    5.0654    1.0000 </r>
       <r>    5.0655    1.0000 </r>
       <r>    5.4215    1.0000 </r>
       <r>    6.0318    1.0000 </r>
       <r>    6.0605    1.0000 </r>
       <r>    6.1730    1.0000 </r>
       <r>    6.1730    1.0000 </r>
       <r>    6.5267    1.0000 </r>
       <r>    6.5948    1.0000 </r>
       <r>    6.5948    1.0000 </r>
       <r>    7.1237    1.0000 </r>
       <r>    7.1426    1.0000 </r>
       <r>    7.5522    1.0000 </r>
       <r>    7.6707    1.0000 </r>
       <r>    7.6776    1.0000 </r>
       <r>    7.6776    1.0000 </r>
       <r>    8.1575    1.0000 </r>
       <r>    8.3461    1.0000 </r>
       <r>    8.3461    1.0000 </r>
       <r>    8.3844    1.0000 </r>
       <r>    8.7659    1.0000 </r>
       <r>    8.7678    1.0000 </r>
       <r>    8.7751    1.0000 </r>
       <r>    8.7751    1.0000 </r>
       <r>    9.0555    0.1645 </r>
       <r>    9.1459    0.0002 </r>
       <r>    9.1821    0.0000 </r>
       <r>    9.3147    0.0000 </r>
       <r>    9.3509    0.0000 </r>
       <r>    9.4588    0.0000 </r>
       <r>    9.4588    0.0000 </r>
       <r>    9.8657    0.0000 </r>
       <r>   10.0956    0.0000 </r>
       <r>   10.2952    0.0000 </r>
       <r>   10.2952    0.0000 </r>
       <r>   10.5501    0.0000 </r>
       <r>   10.9663    0.0000 </r>
       <r>   10.9863    0.0000 </r>
       <r>   10.9863    0.0000 </r>
       <r>   11.4380    0.0000 </r>
       <r>   11.5075    0.0000 </r>
       <r>   11.6398    0.0000 </r>
       <r>   11.6398    0.0000 </r>
       <r>   11.6509    0.0000 </r>
       <r>   11.8604    0.0000 </r>
       <r>   11.8627    0.0000 </r>
       <r>   11.8627    0.0000 </r>
       <r>   12.0676    0.0000 </r>
      </set>
      <set comment="kpoint 13">
       <r>   -2.5969    1.0000 </r>
       <r>   -1.3989    1.0000 </r>
       <r>   -0.8041    1.0000 </r>
       <r>   -0.2138    1.0000 </r>
       <r>   -0.2104    1.0000 </r>
       <r>    0.3769    1.0000 </r>
       <r>    0.3774    1.0000 </r>
       <r>    0.9617    1.0000 </r>
       <r>    0.9630    1.0000 </r>
       <r>    0.9657    1.0000 </r>
       <r>    1.5457    1.0000 </r>
       <r>    1.5473    1.0000 </r>
       <r>    1.5494    1.0000 </r>
       <r>    2.7024    1.0000 </r>
       <r>    2.7041    1.0000 </r>
       <r>    2.7052    1.0000 </r>
       <r>    2.7063    1.0000 </r>
       <r>    2.7078    1.0000 </r>
       <r>    3.2783    1.0000 </r>
       <r>    3.2818    1.0000 </r>
       <r>    3.8258    1.0000 </r>
       <r>    3.8291    1.0000 </r>
       <r>    3.8517    1.0000 </r>
       <r>    4.3813    1.0000 </r>
       <r>    5.0638    1.0000 </r>
       <r>    5.0671    1.0000 </r>
       <r>    5.4215    1.0000 </r>
       <r>    6.0318    1.0000 </r>
       <r>    6.0604    1.0000 </r>
       <r>    6.1712    1.0000 </r>
       <r>    6.1748    1.0000 </r>
       <r>    6.5267    1.0000 </r>
       <r>    6.5931    1.0000 </r>
       <r>    6.5965    1.0000 </r>
       <r>    7.1236    1.0000 </r>
       <r>    7.1427    1.0000 </r>
       <r>    7.5522    1.0000 </r>
       <r>    7.6704    1.0000 </r>
       <r>    7.6760    1.0000 </r>
       <r>    7.6795    1.0000 </r>
       <r>    8.1575    1.0000 </r>
       <r>    8.3442    1.0000 </r>
       <r>    8.3480    1.0000 </r>
       <r>    8.3844    1.0000 </r>
       <r>    8.7663    1.0000 </r>
       <r>    8.7671    1.0000 </r>
       <r>    8.7734    1.0000 </r>
       <r>    8.7773    1.0000 </r>
       <r>    9.0555    0.1646 </r>
       <r>    9.1459    0.0002 </r>
       <r>    9.1820    0.0000 </r>
       <r>    9.3147    0.0000 </r>
       <r>    9.3509    0.0000 </r>
       <r>    9.4569    0.0000 </r>
       <r>    9.4608    0.0000 </r>
       <r>    9.8657    0.0000 </r>
       <r>   10.0955    0.0000 </r>
       <r>   10.2943    0.0000 </r>
       <r>   10.2961    0.0000 </r>
       <r>   10.5500    0.0000 </r>
       <r>   10.9662    0.0000 </r>
       <r>   10.9843    0.0000 </r>
       <r>   10.9884    0.0000 </r>
       <r>   11.4380    0.0000 </r>
       <r>   11.5075    0.0000 </r>
       <r>   11.6382    0.0000 </r>
       <r>   11.6413    0.0000 </r>
       <r>   11.6511    0.0000 </r>
       <r>   11.8603    0.0000 </r>
       <r>   11.8617    0.0000 </r>
       <r>   11.8638    0.0000 </r>
       <r>   12.0668    0.0000 </r>
      </set>
      <set comment="kpoint 14">
       <r>   -2.5969    1.0000 </r>
       <r>   -1.3989    1.0000 </r>
       <r>   -0.8041    1.0000 </r>
       <r>   -0.2121    1.0000 </r>
       <r>   -0.2121    1.0000 </r>
       <r>    0.3758    1.0000 </r>
       <r>    0.3785    1.0000 </r>
       <r>    0.9627    1.0000 </r>
       <r>    0.9638    1.0000 </r>
       <r>    0.9638    1.0000 </r>
       <r>    1.5460    1.0000 </r>
       <r>    1.5476    1.0000 </r>
       <r>    1.5488    1.0000 </r>
       <r>    2.7030    1.0000 </r>
       <r>    2.7039    1.0000 </r>
       <r>    2.7050    1.0000 </r>
       <r>    2.7064    1.0000 </r>
       <r>    2.7076    1.0000 </r>
       <r>    3.2801    1.0000 </r>
       <r>    3.2801    1.0000 </r>
       <r>    3.8275    1.0000 </r>
       <r>    3.8275    1.0000 </r>
       <r>    3.8516    1.0000 </r>
       <r>    4.3813    1.0000 </r>
       <r>    5.0654    1.0000 </r>
       <r>    5.0654    1.0000 </r>
       <r>    5.4215    1.0000 </r>
       <r>    6.0318    1.0000 </r>
       <r>    6.0604    1.0000 </r>
       <r>    6.1730    1.0000 </r>
       <r>    6.1730    1.0000 </r>
       <r>    6.5267    1.0000 </r>
       <r>    6.5948    1.0000 </r>
       <r>    6.5948    1.0000 </r>
       <r>    7.1237    1.0000 </r>
       <r>    7.1426    1.0000 </r>
       <r>    7.5522    1.0000 </r>
       <r>    7.6705    1.0000 </r>
       <r>    7.6776    1.0000 </r>
       <r>    7.6779    1.0000 </r>
       <r>    8.1575    1.0000 </r>
       <r>    8.3461    1.0000 </r>
       <r>    8.3461    1.0000 </r>
       <r>    8.3844    1.0000 </r>
       <r>    8.7650    1.0000 </r>
       <r>    8.7684    1.0000 </r>
       <r>    8.7751    1.0000 </r>
       <r>    8.7754    1.0000 </r>
       <r>    9.0555    0.1646 </r>
       <r>    9.1459    0.0002 </r>
       <r>    9.1821    0.0000 </r>
       <r>    9.3147    0.0000 </r>
       <r>    9.3509    0.0000 </r>
       <r>    9.4588    0.0000 </r>
       <r>    9.4588    0.0000 </r>
       <r>    9.8657    0.0000 </r>
       <r>   10.0955    0.0000 </r>
       <r>   10.2952    0.0000 </r>
       <r>   10.2952    0.0000 </r>
       <r>   10.5501    0.0000 </r>
       <r>   10.9662    0.0000 </r>
       <r>   10.9863    0.0000 </r>
       <r>   10.9864    0.0000 </r>
       <r>   11.4380    0.0000 </r>
       <r>   11.5075    0.0000 </r>
       <r>   11.6396    0.0000 </r>
       <r>   11.6398    0.0000 </r>
       <r>   11.6511    0.0000 </r>
       <r>   11.8602    0.0000 </r>
       <r>   11.8627    0.0000 </r>
       <r>   11.8628    0.0000 </r>
       <r>   12.0681    0.0000 </r>
      </set>
      <set comment="kpoint 15">
       <r>   -2.4090    1.0000 </r>
       <r>   -1.8094    1.0000 </r>
       <r>   -0.6187    1.0000 </r>
       <r>   -0.0290    1.0000 </r>
       <r>   -0.0276    1.0000 </r>
       <r>   -0.0261    1.0000 </r>
       <r>    0.5592    1.0000 </r>
       <r>    0.5608    1.0000 </r>
       <r>    0.5621    1.0000 </r>
       <r>    1.1462    1.0000 </r>
       <r>    1.7259    1.0000 </r>
       <r>    1.7294    1.0000 </r>
       <r>    1.7300    1.0000 </r>
       <r>    2.3088    1.0000 </r>
       <r>    2.3088    1.0000 </r>
       <r>    2.8852    1.0000 </r>
       <r>    2.8852    1.0000 </r>
       <r>    3.4442    1.0000 </r>
       <r>    3.4528    1.0000 </r>
       <r>    3.4530    1.0000 </r>
       <r>    3.4575    1.0000 </r>
       <r>    4.0276    1.0000 </r>
       <r>    4.0276    1.0000 </r>
       <r>    4.5946    1.0000 </r>
       <r>    5.1448    1.0000 </r>
       <r>    5.5950    1.0000 </r>
       <r>    5.6991    1.0000 </r>
       <r>    5.6991    1.0000 </r>
       <r>    5.7875    1.0000 </r>
       <r>    5.7875    1.0000 </r>
       <r>    6.1483    1.0000 </r>
       <r>    6.2022    1.0000 </r>
       <r>    6.2533    1.0000 </r>
       <r>    6.7480    1.0000 </r>
       <r>    6.9084    1.0000 </r>
       <r>    6.9084    1.0000 </r>
       <r>    7.4457    1.0000 </r>
       <r>    7.4457    1.0000 </r>
       <r>    7.7228    1.0000 </r>
       <r>    7.8419    1.0000 </r>
       <r>    7.8423    1.0000 </r>
       <r>    7.8424    1.0000 </r>
       <r>    8.2211    1.0000 </r>
       <r>    8.3262    1.0000 </r>
       <r>    8.3901    1.0000 </r>
       <r>    8.3941    1.0000 </r>
       <r>    8.3941    1.0000 </r>
       <r>    8.5634    1.0000 </r>
       <r>    8.5634    1.0000 </r>
       <r>    8.8389    1.0000 </r>
       <r>    8.9381    0.9905 </r>
       <r>    9.4876    0.0000 </r>
       <r>    9.5633    0.0000 </r>
       <r>    9.5865    0.0000 </r>
       <r>   10.0350    0.0000 </r>
       <r>   10.1562    0.0000 </r>
       <r>   10.4366    0.0000 </r>
       <r>   10.5412    0.0000 </r>
       <r>   10.6071    0.0000 </r>
       <r>   10.6071    0.0000 </r>
       <r>   11.1725    0.0000 </r>
       <r>   11.2436    0.0000 </r>
       <r>   11.2436    0.0000 </r>
       <r>   11.2446    0.0000 </r>
       <r>   11.6808    0.0000 </r>
       <r>   11.6891    0.0000 </r>
       <r>   11.7078    0.0000 </r>
       <r>   11.7078    0.0000 </r>
       <r>   12.0575    0.0000 </r>
       <r>   12.4719    0.0000 </r>
       <r>   12.5210    0.0000 </r>
       <r>   12.7913    0.0000 </r>
      </set>
      <set comment="kpoint 16">
       <r>   -2.4090    1.0000 </r>
       <r>   -1.8094    1.0000 </r>
       <r>   -0.6187    1.0000 </r>
       <r>   -0.0299    1.0000 </r>
       <r>   -0.0276    1.0000 </r>
       <r>   -0.0254    1.0000 </r>
       <r>    0.5585    1.0000 </r>
       <r>    0.5606    1.0000 </r>
       <r>    0.5630    1.0000 </r>
       <r>    1.1462    1.0000 </r>
       <r>    1.7258    1.0000 </r>
       <r>    1.7282    1.0000 </r>
       <r>    1.7313    1.0000 </r>
       <r>    2.3071    1.0000 </r>
       <r>    2.3105    1.0000 </r>
       <r>    2.8835    1.0000 </r>
       <r>    2.8869    1.0000 </r>
       <r>    3.4442    1.0000 </r>
       <r>    3.4513    1.0000 </r>
       <r>    3.4546    1.0000 </r>
       <r>    3.4575    1.0000 </r>
       <r>    4.0258    1.0000 </r>
       <r>    4.0293    1.0000 </r>
       <r>    4.5946    1.0000 </r>
       <r>    5.1448    1.0000 </r>
       <r>    5.5950    1.0000 </r>
       <r>    5.6974    1.0000 </r>
       <r>    5.7009    1.0000 </r>
       <r>    5.7857    1.0000 </r>
       <r>    5.7892    1.0000 </r>
       <r>    6.1483    1.0000 </r>
       <r>    6.2023    1.0000 </r>
       <r>    6.2533    1.0000 </r>
       <r>    6.7481    1.0000 </r>
       <r>    6.9066    1.0000 </r>
       <r>    6.9102    1.0000 </r>
       <r>    7.4438    1.0000 </r>
       <r>    7.4475    1.0000 </r>
       <r>    7.7227    1.0000 </r>
[...]
       <r>    3.6664    1.0000 </r>
       <r>    3.6664    1.0000 </r>
       <r>    3.6664    1.0000 </r>
       <r>    3.6664    1.0000 </r>
       <r>    3.6665    1.0000 </r>
       <r>    3.6665    1.0000 </r>
       <r>    3.6666    1.0000 </r>
       <r>    3.6666    1.0000 </r>
       <r>    3.6666    1.0000 </r>
       <r>    3.6666    1.0000 </r>
       <r>    3.6670    1.0000 </r>
       <r>    3.6671    1.0000 </r>
       <r>    3.6674    1.0000 </r>
       <r>    3.6709    1.0000 </r>
       <r>    3.6709    1.0000 </r>
       <r>    3.6770    1.0000 </r>
       <r>    8.2009    1.0000 </r>
       <r>    8.2009    1.0000 </r>
       <r>    8.2034    1.0000 </r>
       <r>    8.2048    1.0000 </r>
       <r>    8.2066    1.0000 </r>
       <r>    8.2070    1.0000 </r>
       <r>    8.2071    1.0000 </r>
       <r>    8.2071    1.0000 </r>
       <r>    8.2073    1.0000 </r>
       <r>    8.2073    1.0000 </r>
       <r>    8.2073    1.0000 </r>
       <r>    8.2074    1.0000 </r>
       <r>    8.2074    1.0000 </r>
       <r>    8.2075    1.0000 </r>
       <r>    8.2075    1.0000 </r>
       <r>    8.2075    1.0000 </r>
       <r>    8.2077    1.0000 </r>
       <r>    8.2077    1.0000 </r>
       <r>    8.2078    1.0000 </r>
       <r>    8.2083    1.0000 </r>
       <r>    8.2100    1.0000 </r>
       <r>    8.2115    1.0000 </r>
       <r>    8.2139    1.0000 </r>
       <r>    8.2139    1.0000 </r>
       <r>   12.6413    0.0000 </r>
       <r>   12.6419    0.0000 </r>
       <r>   12.6419    0.0000 </r>
       <r>   12.6422    0.0000 </r>
       <r>   12.6440    0.0000 </r>
       <r>   12.6444    0.0000 </r>
       <r>   12.6444    0.0000 </r>
       <r>   12.6450    0.0000 </r>
       <r>   12.9082    0.0000 </r>
       <r>   12.9090    0.0000 </r>
       <r>   12.9096    0.0000 </r>
       <r>   12.9102    0.0000 </r>
       <r>   12.9108    0.0000 </r>
       <r>   12.9111    0.0000 </r>
       <r>   12.9115    0.0000 </r>
       <r>   12.9125    0.0000 </r>
      </set>
     </set>
    </set>
   </array>
  </eigenvalues>
  <separator name="orbital magnetization" >
   <v name="MAGDIPOLOUT">      0.00000000      0.00000000      0.00000000</v>
  </separator>
  <dos>
   <i name="efermi">      9.02099002 </i>
   <total>
    <array>
     <dimension dim="1">gridpoints</dimension>
     <dimension dim="2">spin</dimension>
     <field>energy</field>
     <field>total</field>
     <field>integrated</field>
     <set>
      <set comment="spin 1">
       <r>    -3.5784     0.0000     0.0000 </r>
       <r>    -3.5203     0.0000     0.0000 </r>
       <r>    -3.4621     0.0000     0.0000 </r>
       <r>    -3.4039     0.0000     0.0000 </r>
       <r>    -3.3457     0.0000     0.0000 </r>
       <r>    -3.2876     0.0000     0.0000 </r>
       <r>    -3.2294     0.0000     0.0000 </r>
       <r>    -3.1712     0.0000     0.0000 </r>
       <r>    -3.1130     0.0000     0.0000 </r>
       <r>    -3.0549     0.0000     0.0000 </r>
       <r>    -2.9967     0.0000     0.0000 </r>
       <r>    -2.9385     0.0000     0.0000 </r>
       <r>    -2.8803     0.0003     0.0000 </r>
       <r>    -2.8222     0.0172     0.0010 </r>
       <r>    -2.7640     0.2134     0.0134 </r>
       <r>    -2.7058     0.7318     0.0560 </r>
       <r>    -2.6476     0.9620     0.1120 </r>
       <r>    -2.5895     1.5039     0.1995 </r>
       <r>    -2.5313     1.7042     0.2986 </r>
       <r>    -2.4731     1.3106     0.3748 </r>
       <r>    -2.4149     2.3023     0.5088 </r>
       <r>    -2.3568     2.2848     0.6417 </r>
       <r>    -2.2986     2.0561     0.7613 </r>
       <r>    -2.2404     2.7376     0.9206 </r>
       <r>    -2.1822     1.7350     1.0215 </r>
       <r>    -2.1241     2.9750     1.1946 </r>
       <r>    -2.0659     3.3375     1.3887 </r>
       <r>    -2.0077     3.1630     1.5728 </r>
       <r>    -1.9495     3.0303     1.7490 </r>
       <r>    -1.8913     1.7769     1.8524 </r>
       <r>    -1.8332     3.2175     2.0396 </r>
       <r>    -1.7750     4.5858     2.3064 </r>
       <r>    -1.7168     3.3491     2.5012 </r>
       <r>    -1.6586     4.4179     2.7582 </r>
       <r>    -1.6005     2.5552     2.9069 </r>
       <r>    -1.5423     2.8703     3.0739 </r>
       <r>    -1.4841     4.6082     3.3419 </r>
       <r>    -1.4259     4.0918     3.5800 </r>
       <r>    -1.3678     3.9235     3.8082 </r>
       <r>    -1.3096     3.4714     4.0102 </r>
       <r>    -1.2514     4.5580     4.2754 </r>
       <r>    -1.1932     5.6640     4.6049 </r>
       <r>    -1.1351     3.7898     4.8253 </r>
       <r>    -1.0769     4.8407     5.1069 </r>
       <r>    -1.0187     3.1909     5.2926 </r>
       <r>    -0.9605     2.6490     5.4467 </r>
       <r>    -0.9024     5.8740     5.7884 </r>
       <r>    -0.8442     5.4373     6.1047 </r>
       <r>    -0.7860     5.9818     6.4527 </r>
       <r>    -0.7278     5.7623     6.7879 </r>
       <r>    -0.6697     4.0013     7.0207 </r>
       <r>    -0.6115     4.3354     7.2729 </r>
       <r>    -0.5533     4.3677     7.5270 </r>
       <r>    -0.4951     5.1676     7.8277 </r>
       <r>    -0.4370     5.5954     8.1532 </r>
       <r>    -0.3788     3.5843     8.3617 </r>
       <r>    -0.3206     7.1712     8.7789 </r>
       <r>    -0.2624     6.1488     9.1366 </r>
       <r>    -0.2043     6.3768     9.5076 </r>
       <r>    -0.1461     4.9897     9.7979 </r>
       <r>    -0.0879     3.3127     9.9906 </r>
       <r>    -0.0297     6.7039    10.3806 </r>
       <r>     0.0284     7.3558    10.8085 </r>
       <r>     0.0866     6.0659    11.1614 </r>
       <r>     0.1448     5.0402    11.4546 </r>
       <r>     0.2030     3.4289    11.6541 </r>
       <r>     0.2612     6.5278    12.0338 </r>
       <r>     0.3193     6.6343    12.4198 </r>
       <r>     0.3775     6.2759    12.7849 </r>
       <r>     0.4357     6.8352    13.1825 </r>
       <r>     0.4939     5.1213    13.4805 </r>
       <r>     0.5520     9.7495    14.0477 </r>
       <r>     0.6102     8.1370    14.5210 </r>
       <r>     0.6684     4.0287    14.7554 </r>
       <r>     0.7266     5.3940    15.0692 </r>
       <r>     0.7847     3.5101    15.2734 </r>
       <r>     0.8429     5.6565    15.6025 </r>
       <r>     0.9011     8.0829    16.0727 </r>
       <r>     0.9593     8.6438    16.5756 </r>
       <r>     1.0174     8.0883    17.0461 </r>
       <r>     1.0756     5.1234    17.3442 </r>
       <r>     1.1338     7.9574    17.8071 </r>
       <r>     1.1920     7.5051    18.2437 </r>
       <r>     1.2501     6.6419    18.6301 </r>
       <r>     1.3083     8.3558    19.1162 </r>
       <r>     1.3665     4.4568    19.3755 </r>
       <r>     1.4247     6.3390    19.7443 </r>
       <r>     1.4828     8.0406    20.2120 </r>
       <r>     1.5410     8.5405    20.7089 </r>
       <r>     1.5992     7.9309    21.1703 </r>
       <r>     1.6574     4.5732    21.4363 </r>
       <r>     1.7155     7.4969    21.8725 </r>
       <r>     1.7737     7.8691    22.3303 </r>
       <r>     1.8319     7.0989    22.7432 </r>
       <r>     1.8901    10.3833    23.3473 </r>
       <r>     1.9482     5.5676    23.6712 </r>
       <r>     2.0064     8.0010    24.1367 </r>
       <r>     2.0646     9.1482    24.6689 </r>
       <r>     2.1228     7.9109    25.1291 </r>
       <r>     2.1809     8.9883    25.6520 </r>
       <r>     2.2391     6.3519    26.0215 </r>
       <r>     2.2973     8.1221    26.4940 </r>
       <r>     2.3555     8.6056    26.9946 </r>
       <r>     2.4137     7.4141    27.4260 </r>
       <r>     2.4718     5.7001    27.7576 </r>
       <r>     2.5300     3.9421    27.9869 </r>
       <r>     2.5882    10.0087    28.5692 </r>
       <r>     2.6464    11.1316    29.2168 </r>
       <r>     2.7045     9.5238    29.7708 </r>
       <r>     2.7627    10.4387    30.3781 </r>
       <r>     2.8209     7.4978    30.8143 </r>
       <r>     2.8791    11.0442    31.4568 </r>
       <r>     2.9372     8.9772    31.9790 </r>
       <r>     2.9954     5.8837    32.3213 </r>
       <r>     3.0536     6.1285    32.6779 </r>
       <r>     3.1118     6.1926    33.0381 </r>
       <r>     3.1699    11.7089    33.7193 </r>
       <r>     3.2281     8.8459    34.2339 </r>
       <r>     3.2863     9.3508    34.7779 </r>
       <r>     3.3445     8.3296    35.2625 </r>
       <r>     3.4026     5.9780    35.6102 </r>
       <r>     3.4608    10.5675    36.2250 </r>
       <r>     3.5190    11.1310    36.8726 </r>
       <r>     3.5772    11.9335    37.5668 </r>
       <r>     3.6353     9.4669    38.1175 </r>
       <r>     3.6935     4.7360    38.3931 </r>
       <r>     3.7517     8.0906    38.8637 </r>
       <r>     3.8099    10.6628    39.4841 </r>
       <r>     3.8680    11.2948    40.1411 </r>
       <r>     3.9262     8.5844    40.6405 </r>
       <r>     3.9844    10.3481    41.2425 </r>
       <r>     4.0426    13.4532    42.0252 </r>
       <r>     4.1007     8.8582    42.5405 </r>
       <r>     4.1589     9.7835    43.1097 </r>
       <r>     4.2171     4.5166    43.3724 </r>
       <r>     4.2753     6.4423    43.7472 </r>
       <r>     4.3334    13.9814    44.5606 </r>
       <r>     4.3916    11.3390    45.2203 </r>
       <r>     4.4498     8.1887    45.6966 </r>
       <r>     4.5080     6.7477    46.0892 </r>
       <r>     4.5662    10.6803    46.7105 </r>
       <r>     4.6243    10.8161    47.3398 </r>
       <r>     4.6825    11.5562    48.0121 </r>
       <r>     4.7407    10.2492    48.6083 </r>
       <r>     4.7989     8.9031    49.1263 </r>
       <r>     4.8570    12.4888    49.8528 </r>
       <r>     4.9152    10.2582    50.4496 </r>
       <r>     4.9734    10.5057    51.0608 </r>
       <r>     5.0316     8.9223    51.5798 </r>
       <r>     5.0897     7.1489    51.9957 </r>
       <r>     5.1479     6.4723    52.3722 </r>
       <r>     5.2061     9.2733    52.9117 </r>
       <r>     5.2643    11.9019    53.6041 </r>
       <r>     5.3224    11.2219    54.2570 </r>
       <r>     5.3806    12.5139    54.9850 </r>
       <r>     5.4388    12.8592    55.7331 </r>
       <r>     5.4970    12.1646    56.4407 </r>
       <r>     5.5551    10.2117    57.0348 </r>
       <r>     5.6133    10.0630    57.6202 </r>
       <r>     5.6715    11.7455    58.3035 </r>
       <r>     5.7297     9.3599    58.8481 </r>
       <r>     5.7878    12.0686    59.5502 </r>
       <r>     5.8460     9.1999    60.0854 </r>
       <r>     5.9042    11.3405    60.7451 </r>
       <r>     5.9624    11.6528    61.4230 </r>
       <r>     6.0205    10.9803    62.0618 </r>
       <r>     6.0787    12.3122    62.7781 </r>
       <r>     6.1369    13.2569    63.5493 </r>
       <r>     6.1951    15.1064    64.4281 </r>
       <r>     6.2532    10.3184    65.0284 </r>
       <r>     6.3114    10.1947    65.6215 </r>
       <r>     6.3696     9.6989    66.1857 </r>
       <r>     6.4278     9.1705    66.7192 </r>
       <r>     6.4859    10.5119    67.3308 </r>
       <r>     6.5441     9.9470    67.9094 </r>
       <r>     6.6023    15.5194    68.8123 </r>
       <r>     6.6605    13.9438    69.6235 </r>
       <r>     6.7186    13.2775    70.3959 </r>
       <r>     6.7768     8.5947    70.8959 </r>
       <r>     6.8350     3.4570    71.0970 </r>
       <r>     6.8932     6.0653    71.4499 </r>
       <r>     6.9514    11.7154    72.1314 </r>
       <r>     7.0095    19.2117    73.2491 </r>
       <r>     7.0677    12.5245    73.9777 </r>
       <r>     7.1259     9.5537    74.5335 </r>
       <r>     7.1841    12.0824    75.2364 </r>
       <r>     7.2422     8.6219    75.7380 </r>
       <r>     7.3004     4.9504    76.0260 </r>
       <r>     7.3586     9.5216    76.5799 </r>
       <r>     7.4168    14.4725    77.4219 </r>
       <r>     7.4749    11.6078    78.0971 </r>
       <r>     7.5331    11.2705    78.7528 </r>
       <r>     7.5913    14.3192    79.5858 </r>
       <r>     7.6495     9.0810    80.1141 </r>
       <r>     7.7076    10.8707    80.7465 </r>
       <r>     7.7658    10.1485    81.3369 </r>
       <r>     7.8240    11.8784    82.0280 </r>
       <r>     7.8822    15.4109    82.9245 </r>
       <r>     7.9403     9.7079    83.4893 </r>
       <r>     7.9985     9.5689    84.0460 </r>
       <r>     8.0567    12.0594    84.7475 </r>
       <r>     8.1149    13.9060    85.5565 </r>
       <r>     8.1730    12.0211    86.2558 </r>
       <r>     8.2312    12.6911    86.9942 </r>
       <r>     8.2894    12.9637    87.7483 </r>
       <r>     8.3476    12.7922    88.4925 </r>
       <r>     8.4057    13.5439    89.2804 </r>
       <r>     8.4639    11.6409    89.9577 </r>
       <r>     8.5221     7.6183    90.4009 </r>
       <r>     8.5803    12.9040    91.1516 </r>
       <r>     8.6384    12.2759    91.8657 </r>
       <r>     8.6966     9.9580    92.4450 </r>
       <r>     8.7548     9.7009    93.0094 </r>
       <r>     8.8130    10.9821    93.6483 </r>
       <r>     8.8711    10.6290    94.2666 </r>
       <r>     8.9293    12.2937    94.9818 </r>
       <r>     8.9875    12.0204    95.6811 </r>
       <r>     9.0457     8.9864    96.2039 </r>
       <r>     9.1039     8.2497    96.6838 </r>
       <r>     9.1620    10.9536    97.3211 </r>
       <r>     9.2202    12.3354    98.0387 </r>
       <r>     9.2784    11.0413    98.6810 </r>
       <r>     9.3366    15.4247    99.5784 </r>
       <r>     9.3947    17.7956   100.6136 </r>
       <r>     9.4529    15.4577   101.5129 </r>
       <r>     9.5111    13.6581   102.3075 </r>
       <r>     9.5693    12.0013   103.0057 </r>
       <r>     9.6274    16.5843   103.9705 </r>
       <r>     9.6856    17.2599   104.9746 </r>
       <r>     9.7438    11.6589   105.6528 </r>
       <r>     9.8020    10.7148   106.2762 </r>
       <r>     9.8601    10.8487   106.9073 </r>
       <r>     9.9183    10.8956   107.5412 </r>
       <r>     9.9765     9.6821   108.1044 </r>
       <r>    10.0347     8.6537   108.6079 </r>
       <r>    10.0928    10.2573   109.2046 </r>
       <r>    10.1510    13.4049   109.9844 </r>
       <r>    10.2092     9.9821   110.5651 </r>
       <r>    10.2674     9.6065   111.1240 </r>
       <r>    10.3255    16.4651   112.0819 </r>
       <r>    10.3837    20.4345   113.2707 </r>
       <r>    10.4419    14.2099   114.0973 </r>
       <r>    10.5001    13.9373   114.9081 </r>
       <r>    10.5582    16.9128   115.8921 </r>
       <r>    10.6164    12.7696   116.6349 </r>
       <r>    10.6746    11.3687   117.2963 </r>
       <r>    10.7328    12.8849   118.0459 </r>
       <r>    10.7909    11.5775   118.7194 </r>
       <r>    10.8491    10.0227   119.3025 </r>
       <r>    10.9073    10.0535   119.8874 </r>
       <r>    10.9655    10.0463   120.4718 </r>
       <r>    11.0236     9.2673   121.0110 </r>
       <r>    11.0818    13.9295   121.8213 </r>
       <r>    11.1400    18.8371   122.9172 </r>
       <r>    11.1982    16.9615   123.9039 </r>
       <r>    11.2564    14.9272   124.7723 </r>
       <r>    11.3145     9.8670   125.3463 </r>
       <r>    11.3727    13.8172   126.1502 </r>
       <r>    11.4309    12.6289   126.8849 </r>
       <r>    11.4891    12.9125   127.6360 </r>
       <r>    11.5472    12.8333   128.3826 </r>
       <r>    11.6054    14.4641   129.2241 </r>
       <r>    11.6636    14.5088   130.0682 </r>
       <r>    11.7218    11.7358   130.7509 </r>
       <r>    11.7799    10.4478   131.3587 </r>
       <r>    11.8381    12.2118   132.0691 </r>
       <r>    11.8963    14.4198   132.9080 </r>
       <r>    11.9545    15.9220   133.8343 </r>
       <r>    12.0126    17.3158   134.8416 </r>
       <r>    12.0708    10.4745   135.4510 </r>
       <r>    12.1290     9.2745   135.9905 </r>
       <r>    12.1872     9.8116   136.5613 </r>
       <r>    12.2453    18.0244   137.6099 </r>
       <r>    12.3035    16.4961   138.5696 </r>
       <r>    12.3617    11.1194   139.2165 </r>
       <r>    12.4199     9.6401   139.7773 </r>
       <r>    12.4780    13.5981   140.5684 </r>
       <r>    12.5362    14.2048   141.3947 </r>
       <r>    12.5944     7.5781   141.8356 </r>
       <r>    12.6526     5.6393   142.1637 </r>
       <r>    12.7107    10.5960   142.7801 </r>
       <r>    12.7689     7.0691   143.1914 </r>
       <r>    12.8271     3.7092   143.4071 </r>
       <r>    12.8853     1.3129   143.4835 </r>
       <r>    12.9434     2.5295   143.6307 </r>
       <r>    13.0016     2.7878   143.7929 </r>
       <r>    13.0598     1.9930   143.9088 </r>
       <r>    13.1180     1.3229   143.9858 </r>
       <r>    13.1761     0.2392   143.9997 </r>
       <r>    13.2343     0.0054   144.0000 </r>
       <r>    13.2925     0.0000   144.0000 </r>
       <r>    13.3507     0.0000   144.0000 </r>
       <r>    13.4089     0.0000   144.0000 </r>
       <r>    13.4670     0.0000   144.0000 </r>
       <r>    13.5252     0.0000   144.0000 </r>
       <r>    13.5834     0.0000   144.0000 </r>
       <r>    13.6416     0.0000   144.0000 </r>
       <r>    13.6997     0.0000   144.0000 </r>
       <r>    13.7579     0.0000   144.0000 </r>
       <r>    13.8161     0.0000   144.0000 </r>
       <r>    13.8743     0.0000   144.0000 </r>
      </set>
     </set>
    </array>
   </total>
  </dos>
 </calculation>
 <structure name="finalpos" >
  <crystal>
   <varray name="basis" >
    <v>       7.83452155       0.00000000       0.00000000 </v>
    <v>       0.00000000       7.83452155       0.00000000 </v>
    <v>       0.00000000       0.00000000       7.83452155 </v>
   </varray>
   <i name="volume">    480.88080072 </i>
   <varray name="rec_basis" >
    <v>       0.12764021       0.00000000       0.00000000 </v>
    <v>       0.00000000       0.12764021       0.00000000 </v>
    <v>       0.00000000       0.00000000       0.12764021 </v>
   </varray>
  </crystal>
  <varray name="positions" >
   <v>       0.00127640       0.00000000       0.00000000 </v>
   <v>       0.50000000       0.00000000       0.00000000 </v>
   <v>       0.00000000       0.50000000       0.00000000 </v>
   <v>       0.50000000       0.50000000       0.00000000 </v>
   <v>       0.00000000       0.00000000       0.50000000 </v>
   <v>       0.50000000       0.00000000       0.50000000 </v>
   <v>       0.00000000       0.50000000       0.50000000 </v>
   <v>       0.50000000       0.50000000       0.50000000 </v>
   <v>       0.00000000       0.25000000       0.25000000 </v>
   <v>       0.50000000       0.25000000       0.25000000 </v>
   <v>       0.00000000       0.75000000       0.25000000 </v>
   <v>       0.50000000       0.75000000       0.25000000 </v>
   <v>       0.00000000       0.25000000       0.75000000 </v>
   <v>       0.50000000       0.25000000       0.75000000 </v>
   <v>       0.00000000       0.75000000       0.75000000 </v>
   <v>       0.50000000       0.75000000       0.75000000 </v>
   <v>       0.25000000       0.00000000       0.25000000 </v>
   <v>       0.75000000       0.00000000       0.25000000 </v>
   <v>       0.25000000       0.50000000       0.25000000 </v>
   <v>       0.75000000       0.50000000       0.25000000 </v>
   <v>       0.25000000       0.00000000       0.75000000 </v>
   <v>       0.75000000       0.00000000       0.75000000 </v>
   <v>       0.25000000       0.50000000       0.75000000 </v>
   <v>       0.75000000       0.50000000       0.75000000 </v>
   <v>       0.25000000       0.25000000       0.00000000 </v>
   <v>       0.75000000       0.25000000       0.00000000 </v>
   <v>       0.25000000       0.75000000       0.00000000 </v>
   <v>       0.75000000       0.75000000       0.00000000 </v>
   <v>       0.25000000       0.25000000       0.50000000 </v>
   <v>       0.75000000       0.25000000       0.50000000 </v>
   <v>       0.25000000       0.75000000       0.50000000 </v>
   <v>       0.75000000       0.75000000       0.50000000 </v>
  </varray>
 </structure>
</modeling>
