<?xml version="1.0" encoding="ISO-8859-1"?>
<modeling>
 <generator>
  <i name="program" type="string">vasp </i>
  <i name="version" type="string">6.3.0  </i>
  <i name="subversion" type="string">20Jan22 (build Feb 10 2022 15:15:41) complex                          parallel </i>
  <i name="platform" type="string">LinuxIFC </i>
  <i name="date" type="string">2023 10 05 </i>
  <i name="time" type="string">11:14:56 </i>
 </generator>
 <incar>
  <i name="EDIFF">      0.00010000</i>
  <i name="ENCUT">    360.00000000</i>
  <i type="int" name="ISMEAR">     0</i>
  <i name="SIGMA">      0.05000000</i>
 </incar>
 <primitive_cell>
  <structure name="primitive_cell" >
   <crystal>
    <varray name="basis" >
     <v>      12.99297215       0.00000000       0.00000000 </v>
     <v>       0.00000000      12.99297215       0.00000000 </v>
     <v>       0.00000000       0.00000000      12.99297215 </v>
    </varray>
    <i name="volume">   2193.43880629 </i>
    <varray name="rec_basis" >
     <v>       0.07696468       0.00000000       0.00000000 </v>
     <v>       0.00000000       0.07696468       0.00000000 </v>
     <v>       0.00000000       0.00000000       0.07696468 </v>
    </varray>
   </crystal>
   <varray name="positions" >
    <v>       0.00076965       0.00000000       0.00000000 </v>
    <v>       0.50000000       0.00000000       0.00000000 </v>
    <v>       0.00000000       0.50000000       0.00000000 </v>
    <v>       0.50000000       0.50000000       0.00000000 </v>
    <v>       0.00000000       0.00000000       0.50000000 </v>
    <v>       0.50000000       0.00000000       0.50000000 </v>
    <v>       0.00000000       0.50000000       0.50000000 </v>
    <v>       0.50000000       0.50000000       0.50000000 </v>
    <v>       0.00000000       0.25000000       0.25000000 </v>
    <v>       0.50000000       0.25000000       0.25000000 </v>
    <v>       0.00000000       0.75000000       0.25000000 </v>
    <v>       0.50000000       0.75000000       0.25000000 </v>
    <v>       0.00000000       0.25000000       0.75000000 </v>
    <v>       0.50000000       0.25000000       0.75000000 </v>
    <v>       0.00000000       0.75000000       0.75000000 </v>
    <v>       0.50000000       0.75000000       0.75000000 </v>
    <v>       0.25000000       0.00000000       0.25000000 </v>
    <v>       0.75000000       0.00000000       0.25000000 </v>
    <v>       0.25000000       0.50000000       0.25000000 </v>
    <v>       0.75000000       0.50000000       0.25000000 </v>
    <v>       0.25000000       0.00000000       0.75000000 </v>
    <v>       0.75000000       0.00000000       0.75000000 </v>
    <v>       0.25000000       0.50000000       0.75000000 </v>
    <v>       0.75000000       0.50000000       0.75000000 </v>
    <v>       0.25000000       0.25000000       0.00000000 </v>
    <v>       0.75000000       0.25000000       0.00000000 </v>
    <v>       0.25000000       0.75000000       0.00000000 </v>
    <v>       0.75000000       0.75000000       0.00000000 </v>
    <v>       0.25000000       0.25000000       0.50000000 </v>
    <v>       0.75000000       0.25000000       0.50000000 </v>
    <v>       0.25000000       0.75000000       0.50000000 </v>
    <v>       0.75000000       0.75000000       0.50000000 </v>
    <v>       0.12500000       0.12500000       0.12500000 </v>
    <v>       0.62500000       0.12500000       0.12500000 </v>
    <v>       0.12500000       0.62500000       0.12500000 </v>
    <v>       0.62500000       0.62500000       0.12500000 </v>
    <v>       0.12500000       0.12500000       0.62500000 </v>
    <v>       0.62500000       0.12500000       0.62500000 </v>
    <v>       0.12500000       0.62500000       0.62500000 </v>
    <v>       0.62500000       0.62500000       0.62500000 </v>
    <v>       0.12500000       0.37500000       0.37500000 </v>
    <v>       0.62500000       0.37500000       0.37500000 </v>
    <v>       0.12500000       0.87500000       0.37500000 </v>
    <v>       0.62500000       0.87500000       0.37500000 </v>
    <v>       0.12500000       0.37500000       0.87500000 </v>
    <v>       0.62500000       0.37500000       0.87500000 </v>
    <v>       0.12500000       0.87500000       0.87500000 </v>
    <v>       0.62500000       0.87500000       0.87500000 </v>
    <v>       0.37500000       0.12500000       0.37500000 </v>
    <v>       0.87500000       0.12500000       0.37500000 </v>
    <v>       0.37500000       0.62500000       0.37500000 </v>
    <v>       0.87500000       0.62500000       0.37500000 </v>
    <v>       0.37500000       0.12500000       0.87500000 </v>
    <v>       0.87500000       0.12500000       0.87500000 </v>
    <v>       0.37500000       0.62500000       0.87500000 </v>
    <v>       0.87500000       0.62500000       0.87500000 </v>
    <v>       0.37500000       0.37500000       0.12500000 </v>
    <v>       0.87500000       0.37500000       0.12500000 </v>
    <v>       0.37500000       0.87500000       0.12500000 </v>
    <v>       0.87500000       0.87500000       0.12500000 </v>
    <v>       0.37500000       0.37500000       0.62500000 </v>
    <v>       0.87500000       0.37500000       0.62500000 </v>
    <v>       0.37500000       0.87500000       0.62500000 </v>
    <v>       0.87500000       0.87500000       0.62500000 </v>
   </varray>
  </structure>
  <varray name="primitive_index" >
   <v type="int" >        1 </v>
   <v type="int" >        2 </v>
   <v type="int" >        3 </v>
   <v type="int" >        4 </v>
   <v type="int" >        5 </v>
   <v type="int" >        6 </v>
   <v type="int" >        7 </v>
   <v type="int" >        8 </v>
   <v type="int" >        9 </v>
   <v type="int" >       10 </v>
   <v type="int" >       11 </v>
   <v type="int" >       12 </v>
   <v type="int" >       13 </v>
   <v type="int" >       14 </v>
   <v type="int" >       15 </v>
   <v type="int" >       16 </v>
   <v type="int" >       17 </v>
   <v type="int" >       18 </v>
   <v type="int" >       19 </v>
   <v type="int" >       20 </v>
   <v type="int" >       21 </v>
   <v type="int" >       22 </v>
   <v type="int" >       23 </v>
   <v type="int" >       24 </v>
   <v type="int" >       25 </v>
   <v type="int" >       26 </v>
   <v type="int" >       27 </v>
   <v type="int" >       28 </v>
   <v type="int" >       29 </v>
   <v type="int" >       30 </v>
   <v type="int" >       31 </v>
   <v type="int" >       32 </v>
   <v type="int" >       33 </v>
   <v type="int" >       34 </v>
   <v type="int" >       35 </v>
   <v type="int" >       36 </v>
   <v type="int" >       37 </v>
   <v type="int" >       38 </v>
   <v type="int" >       39 </v>
   <v type="int" >       40 </v>
   <v type="int" >       41 </v>
   <v type="int" >       42 </v>
   <v type="int" >       43 </v>
   <v type="int" >       44 </v>
   <v type="int" >       45 </v>
   <v type="int" >       46 </v>
   <v type="int" >       47 </v>
   <v type="int" >       48 </v>
   <v type="int" >       49 </v>
   <v type="int" >       50 </v>
   <v type="int" >       51 </v>
   <v type="int" >       52 </v>
   <v type="int" >       53 </v>
   <v type="int" >       54 </v>
   <v type="int" >       55 </v>
   <v type="int" >       56 </v>
   <v type="int" >       57 </v>
   <v type="int" >       58 </v>
   <v type="int" >       59 </v>
   <v type="int" >       60 </v>
   <v type="int" >       61 </v>
   <v type="int" >       62 </v>
   <v type="int" >       63 </v>
   <v type="int" >       64 </v>
  </varray>
 </primitive_cell>
 <kpoints>
  <generation param="Gamma">
   <v type="int" name="divisions">       3        3        3 </v>
   <v name="usershift">      0.00000000       0.00000000       0.00000000 </v>
   <v name="genvec1">      0.33333333       0.00000000       0.00000000 </v>
   <v name="genvec2">      0.00000000       0.33333333       0.00000000 </v>
   <v name="genvec3">      0.00000000       0.00000000       0.33333333 </v>
   <v name="shift">      0.00000000       0.00000000       0.00000000 </v>
  </generation>
  <varray name="kpointlist" >
   <v>       0.00000000       0.00000000       0.00000000 </v>
   <v>       0.33333333       0.00000000       0.00000000 </v>
   <v>       0.00000000       0.33333333       0.00000000 </v>
   <v>       0.33333333       0.33333333       0.00000000 </v>
   <v>       0.00000000       0.33333333       0.33333333 </v>
   <v>       0.00000000      -0.33333333       0.33333333 </v>
   <v>       0.33333333       0.33333333       0.33333333 </v>
   <v>      -0.33333333      -0.33333333       0.33333333 </v>
  </varray>
  <varray name="weights" >
   <v>       0.03703704 </v>
   <v>       0.07407407 </v>
   <v>       0.14814815 </v>
   <v>       0.29629630 </v>
   <v>       0.07407407 </v>
   <v>       0.07407407 </v>
   <v>       0.14814815 </v>
   <v>       0.14814815 </v>
  </varray>
 </kpoints>
 <parameters>
  <separator name="general" >
   <i type="string" name="SYSTEM">unknown system</i>
   <i type="logical" name="LCOMPAT"> F  </i>
  </separator>
  <separator name="electronic" >
   <i type="string" name="PREC">normal</i>
   <i name="ENMAX">    360.00000000</i>
   <i name="ENAUG">    456.10600000</i>
   <i name="EDIFF">      0.00010000</i>
   <i type="int" name="IALGO">    38</i>
   <i type="int" name="IWAVPR">    10</i>
   <i type="int" name="NBANDS">   384</i>
   <i type="int" name="NBANDSLOW">    -1</i>
   <i type="int" name="NBANDSHIGH">    -1</i>
   <i name="NELECT">    576.00000000</i>
   <i type="int" name="TURBO">     0</i>
   <i type="int" name="IRESTART">     0</i>
   <i type="int" name="NREBOOT">     0</i>
   <i type="int" name="NMIN">     0</i>
   <i name="EREF">      0.00000000</i>
   <separator name="electronic smearing" >
    <i type="int" name="ISMEAR">     0</i>
    <i name="SIGMA">      0.05000000</i>
    <i name="KSPACING">      0.50000000</i>
    <i type="logical" name="KGAMMA"> T  </i>
    <i type="logical" name="KBLOWUP"> T  </i>
   </separator>
   <separator name="electronic projectors" >
    <i type="logical" name="LREAL"> F  </i>
    <v name="ROPT">      0.00000000      0.00000000</v>
    <i type="int" name="LMAXPAW">  -100</i>
    <i type="int" name="LMAXMIX">     2</i>
    <i type="logical" name="NLSPLINE"> F  </i>
   </separator>
   <separator name="electronic startup" >
    <i type="int" name="ISTART">     0</i>
    <i type="int" name="ICHARG">     2</i>
    <i type="int" name="INIWAV">     1</i>
   </separator>
   <separator name="electronic spin" >
    <i type="int" name="ISPIN">     1</i>
    <i type="logical" name="LNONCOLLINEAR"> F  </i>
    <v name="MAGMOM">      1.00000000      1.00000000      1.00000000      1.00000000      1.00000000      1.00000000      1.00000000      1.00000000      1.00000000      1.00000000      1.00000000      1.00000000      1.00000000      1.00000000      1.00000000      1.00000000      1.00000000      1.00000000      1.00000000      1.00000000
      1.00000000      1.00000000      1.00000000      1.00000000      1.00000000      1.00000000      1.00000000      1.00000000      1.00000000      1.00000000      1.00000000      1.00000000      1.00000000      1.00000000      1.00000000      1.00000000      1.00000000      1.00000000      1.00000000      1.00000000
      1.00000000      1.00000000      1.00000000      1.00000000      1.00000000      1.00000000      1.00000000      1.00000000      1.00000000      1.00000000      1.00000000      1.00000000      1.00000000      1.00000000      1.00000000      1.00000000      1.00000000      1.00000000      1.00000000      1.00000000
      1.00000000      1.00000000      1.00000000      1.00000000</v>
    <i name="NUPDOWN">     -1.00000000</i>
    <i type="logical" name="LSORBIT"> F  </i>
    <v name="SAXIS">      0.00000000      0.00000000      1.00000000</v>
    <i type="logical" name="LSPIRAL"> F  </i>
    <v name="QSPIRAL">      0.00000000      0.00000000      0.00000000</v>
    <i type="logical" name="LZEROZ"> F  </i>
   </separator>
   <separator name="electronic exchange-correlation" >
    <i type="logical" name="LASPH"> F  </i>
    <i type="logical" name="LMETAGGA"> F  </i>
   </separator>
   <separator name="electronic convergence" >
    <i type="int" name="NELM">    60</i>
    <i type="int" name="NELMDL">    -5</i>
    <i type="int" name="NELMIN">     2</i>
    <i name="ENINI">    360.00000000</i>
    <separator name="electronic convergence detail" >
     <i type="logical" name="LDIAG"> T  </i>
     <i type="logical" name="LSUBROT"> F  </i>
     <i name="WEIMIN">      0.00000000</i>
     <i name="EBREAK">      0.00000007</i>
     <i name="DEPER">      0.30000000</i>
     <i type="int" name="NRMM">     4</i>
     <i name="TIME">      0.40000000</i>
    </separator>
   </separator>
   <separator name="electronic mixer" >
    <i name="AMIX">      0.40000000</i>
    <i name="BMIX">      1.00000000</i>
    <i name="AMIN">      0.10000000</i>
    <i name="AMIX_MAG">      1.60000000</i>
    <i name="BMIX_MAG">      1.00000000</i>
    <separator name="electronic mixer details" >
     <i type="int" name="IMIX">     4</i>
     <i type="logical" name="MIXFIRST"> F  </i>
     <i type="int" name="MAXMIX">   -45</i>
     <i name="WC">    100.00000000</i>
     <i type="int" name="INIMIX">     1</i>
     <i type="int" name="MIXPRE">     1</i>
     <i type="int" name="MREMOVE">     5</i>
    </separator>
   </separator>
   <separator name="electronic dipolcorrection" >
    <i type="logical" name="LDIPOL"> F  </i>
    <i type="logical" name="LMONO"> F  </i>
    <i type="int" name="IDIPOL">     0</i>
    <i name="EPSILON">      1.00000000</i>
    <v name="DIPOL">   -100.00000000   -100.00000000   -100.00000000</v>
    <i name="EFIELD">      0.00000000</i>
   </separator>
  </separator>
  <separator name="grids" >
   <i type="int" name="NGX">    60</i>
   <i type="int" name="NGY">    60</i>
   <i type="int" name="NGZ">    60</i>
   <i type="int" name="NGXF">   120</i>
   <i type="int" name="NGYF">   120</i>
   <i type="int" name="NGZF">   120</i>
   <i type="logical" name="ADDGRID"> F  </i>
  </separator>
  <separator name="ionic" >
   <i type="int" name="NSW">     0</i>
   <i type="int" name="IBRION">    -1</i>
   <i type="int" name="MDALGO">     0</i>
   <i type="int" name="ISIF">     2</i>
   <i name="PSTRESS">      0.00000000</i>
   <i name="EDIFFG">      0.00100000</i>
   <i type="int" name="NFREE">     0</i>
   <i name="POTIM">      0.50000000</i>
   <i name="SMASS">     -3.00000000</i>
   <i name="SCALEE">      1.00000000</i>
  </separator>
  <separator name="ionic md" >
   <i name="TEBEG">      0.00010000</i>
   <i name="TEEND">      0.00010000</i>
   <i type="int" name="NBLOCK">     1</i>
   <i type="int" name="KBLOCK">     1</i>
   <i type="int" name="NPACO">   256</i>
   <i name="APACO">     10.00000000</i>
  </separator>
  <separator name="symmetry" >
   <i type="int" name="ISYM">     2</i>
   <i name="SYMPREC">      0.00001000</i>
  </separator>
  <separator name="dos" >
   <i type="int" name="LORBIT">     0</i>
   <v name="RWIGS">     -1.00000000     -1.00000000</v>
   <i type="int" name="NEDOS">   301</i>
   <i name="EMIN">     10.00000000</i>
   <i name="EMAX">    -10.00000000</i>
   <i name="EFERMI">      0.00000000</i>
  </separator>
  <separator name="writing" >
   <i type="int" name="NWRITE">     2</i>
   <i type="logical" name="LWAVE"> T  </i>
   <i type="logical" name="LDOWNSAMPLE"> F  </i>
   <i type="logical" name="LCHARG"> T  </i>
   <i type="logical" name="LPARD"> F  </i>
   <i type="logical" name="LVTOT"> F  </i>
   <i type="logical" name="LVHAR"> F  </i>
   <i type="logical" name="LELF"> F  </i>
   <i type="logical" name="LOPTICS"> F  </i>
   <v name="STM">      0.00000000      0.00000000      0.00000000      0.00000000      0.00000000      0.00000000      0.00000000</v>
  </separator>
  <separator name="performance" >
   <i type="int" name="NPAR">    48</i>
   <i type="int" name="NSIM">     4</i>
   <i type="int" name="NBLK">    -1</i>
   <i type="logical" name="LPLANE"> T  </i>
   <i type="logical" name="LSCALAPACK"> T  </i>
   <i type="logical" name="LSCAAWARE"> F  </i>
   <i type="logical" name="LSCALU"> F  </i>
   <i type="logical" name="LASYNC"> F  </i>
   <i type="logical" name="LORBITALREAL"> F  </i>
  </separator>
  <separator name="miscellaneous" >
   <i type="int" name="IDIOT">     3</i>
   <i type="int" name="PHON_NSTRUCT">    -1</i>
   <i type="logical" name="LMUSIC"> F  </i>
   <v name="POMASS">    112.41100000    127.60000000</v>
   <v name="DARWINR">      0.00000000      0.00000000</v>
   <v name="DARWINV">      1.00000000      1.00000000</v>
   <i type="logical" name="LCORR"> T  </i>
  </separator>
  <i type="logical" name="GGA_COMPAT"> T  </i>
  <i type="logical" name="LBERRY"> F  </i>
  <i type="int" name="ICORELEVEL">     0</i>
  <i type="logical" name="LDAU"> F  </i>
  <i type="int" name="I_CONSTRAINED_M">     0</i>
  <separator name="electronic exchange-correlation" >
   <i type="string" name="GGA">--</i>
   <i type="int" name="VOSKOWN">     0</i>
   <i type="logical" name="LHFCALC"> F  </i>
   <i type="string" name="PRECFOCK"></i>
   <i type="logical" name="LSYMGRAD"> F  </i>
   <i type="logical" name="LHFONE"> F  </i>
   <i type="logical" name="LRHFCALC"> F  </i>
   <i type="logical" name="LTHOMAS"> F  </i>
   <i type="logical" name="LMODELHF"> F  </i>
   <i type="logical" name="LFOCKACE"> F  </i>
   <i name="ENCUT4O">     -1.00000000</i>
   <i type="int" name="EXXOEP">     0</i>
   <i type="int" name="FOURORBIT">     0</i>
   <i name="AEXX">      0.00000000</i>
   <i name="HFALPHA">      0.00000000</i>
   <i name="MCALPHA">      0.00000000</i>
   <i name="ALDAX">      1.00000000</i>
   <i name="AGGAX">      1.00000000</i>
   <i name="ALDAC">      1.00000000</i>
   <i name="AGGAC">      1.00000000</i>
   <i type="int" name="NKREDX">     1</i>
   <i type="int" name="NKREDY">     1</i>
   <i type="int" name="NKREDZ">     1</i>
   <i type="logical" name="SHIFTRED"> F  </i>
   <i type="logical" name="ODDONLY"> F  </i>
   <i type="logical" name="EVENONLY"> F  </i>
   <i type="int" name="LMAXFOCK">     0</i>
   <i type="int" name="NMAXFOCKAE">     0</i>
   <i type="logical" name="LFOCKAEDFT"> F  </i>
   <i name="HFSCREEN">      0.00000000</i>
   <i name="HFSCREENC">      0.00000000</i>
   <i type="int" name="NBANDSGWLOW">     0</i>
  </separator>
  <separator name="vdW DFT" >
   <i type="logical" name="LUSE_VDW"> F  </i>
   <i name="Zab_VDW">     -0.84910000</i>
   <i name="PARAM1">      0.12340000</i>
   <i name="PARAM2">      1.00000000</i>
   <i name="PARAM3">      0.00000000</i>
  </separator>
  <separator name="model GW" >
   <i type="int" name="MODEL_GW">     0</i>
   <i name="MODEL_EPS0">     20.56348881</i>
   <i name="MODEL_ALPHA">      1.00000000</i>
  </separator>
  <separator name="linear response parameters" >
   <i type="logical" name="LEPSILON"> F  </i>
   <i type="logical" name="LRPA"> F  </i>
   <i type="logical" name="LNABLA"> F  </i>
   <i type="logical" name="LVEL"> F  </i>
   <i name="CSHIFT">      0.10000000</i>
   <i name="OMEGAMAX">     -1.00000000</i>
   <i name="DEG_THRESHOLD">      0.00200000</i>
   <i name="RTIME">     -0.10000000</i>
   <i name="WPLASMAI">      0.00000000</i>
   <v name="DFIELD">      0.00000000      0.00000000      0.00000000</v>
   <v name="WPLASMA">      0.00000000      0.00000000      0.00000000      0.00000000      0.00000000      0.00000000      0.00000000      0.00000000      0.00000000</v>
  </separator>
  <separator name="orbital magnetization" >
   <i type="logical" name="NUCIND"> F  </i>
   <v name="MAGPOS">      0.00000000      0.00000000      0.00000000</v>
   <i type="logical" name="LNICSALL"> T  </i>
   <i type="logical" name="ORBITALMAG"> F  </i>
   <i type="logical" name="LMAGBLOCH"> F  </i>
   <i type="logical" name="LCHIMAG"> F  </i>
   <i type="logical" name="LGAUGE"> T  </i>
   <i type="int" name="MAGATOM">     0</i>
   <v name="MAGDIPOL">      0.00000000      0.00000000      0.00000000</v>
   <v name="AVECCONST">      0.00000000      0.00000000      0.00000000</v>
  </separator>
  <separator name="response functions" >
   <i type="logical" name="LFINITE_TEMPERATURE"> F  </i>
   <i type="logical" name="LADDER"> F  </i>
   <i type="logical" name="LRPAFORCE"> F  </i>
   <i type="logical" name="LFXC"> F  </i>
   <i type="logical" name="LHARTREE"> T  </i>
   <i type="int" name="IBSE">     0</i>
   <v type="int" name="KPOINT">    -1     0     0     0</v>
   <i type="logical" name="LTCTC"> F  </i>
   <i type="logical" name="LTCTE"> F  </i>
   <i type="logical" name="LTETE"> F  </i>
   <i type="logical" name="LTRIPLET"> F  </i>
   <i type="logical" name="LFXCEPS"> F  </i>
   <i type="logical" name="LFXHEG"> F  </i>
   <i type="int" name="NATURALO">     2</i>
   <i type="logical" name="LHOLEGF"> F  </i>
   <i type="logical" name="L2ORDER"> F  </i>
   <i type="logical" name="LDMP1"> F  </i>
   <i type="logical" name="LMP2LT"> F  </i>
   <i type="logical" name="LSMP2LT"> F  </i>
   <i type="logical" name="LGWLF"> F  </i>
   <i name="ENCUTGW">     -2.00000000</i>
   <i name="ENCUTGWSOFT">     -2.00000000</i>
   <i name="ENCUTLF">     -1.00000000</i>
   <i type="logical" name="LESF_SPLINES"> F  </i>
   <i type="int" name="LMAXMP2">    -1</i>
   <i name="SCISSOR">      0.00000000</i>
   <i type="int" name="NOMEGA">     0</i>
   <i type="int" name="NOMEGAR">     0</i>
   <i type="int" name="NBANDSGW">    -1</i>
   <i type="int" name="NBANDSO">    -1</i>
   <i type="int" name="NBANDSV">    -1</i>
   <i type="int" name="NELMGW">     1</i>
   <i type="int" name="NELMHF">     1</i>
   <i type="int" name="DIM">     3</i>
   <i type="int" name="IESPILON">     4</i>
   <i type="int" name="ANTIRES">     0</i>
   <i name="OMEGAMAX">    -30.00000000</i>
   <i name="OMEGAMIN">    -30.00000000</i>
   <i name="OMEGATL">   -200.00000000</i>
   <i type="int" name="OMEGAGRID">     0</i>
   <i name="CSHIFT">     -0.10000000</i>
   <i type="logical" name="LSELFENERGY"> F  </i>
   <i type="logical" name="LSPECTRAL"> F  </i>
   <i type="logical" name="LSPECTRALGW"> F  </i>
   <i type="logical" name="LSINGLES"> F  </i>
   <i type="logical" name="LFERMIGW"> F  </i>
   <i type="logical" name="ODDONLYGW"> F  </i>
   <i type="logical" name="EVENONLYGW"> F  </i>
   <i type="int" name="NKREDLFX">     1</i>
   <i type="int" name="NKREDLFY">     1</i>
   <i type="int" name="NKREDLFZ">     1</i>
   <i type="int" name="MAXMEM">  2800</i>
   <i type="int" name="TELESCOPE">     0</i>
   <i type="int" name="NTAUPAR">    -1</i>
   <i type="int" name="NOMEGAPAR">    -1</i>
   <i name="DAMP_NEWTON">      0.80000001</i>
   <i name="LAMBDA">      1.00000000</i>
  </separator>
  <separator name="External order field" >
   <i name="OFIELD_KAPPA">      0.00000000</i>
   <v name="OFIELD_K">      0.00000000      0.00000000      0.00000000</v>
   <i name="OFIELD_Q6_NEAR">      0.00000000</i>
   <i name="OFIELD_Q6_FAR">      0.00000000</i>
   <i name="OFIELD_A">      0.00000000</i>
  </separator>
  <separator name="optional k-points parameters" >
   <i type="int" name="KPOINTS_OPT_MODE">     1</i>
   <i type="logical" name="LKPOINTS_OPT"> F  </i>
  </separator>
 </parameters>
 <atominfo>
  <atoms>      64 </atoms>
  <types>       2 </types>
  <array name="atoms" >
   <dimension dim="1">ion</dimension>
   <field type="string">element</field>
   <field type="int">atomtype</field>
   <set>
    <rc><c>Cd</c><c>   1</c></rc>
    <rc><c>Cd</c><c>   1</c></rc>
    <rc><c>Cd</c><c>   1</c></rc>
    <rc><c>Cd</c><c>   1</c></rc>
    <rc><c>Cd</c><c>   1</c></rc>
    <rc><c>Cd</c><c>   1</c></rc>
    <rc><c>Cd</c><c>   1</c></rc>
    <rc><c>Cd</c><c>   1</c></rc>
    <rc><c>Cd</c><c>   1</c></rc>
    <rc><c>Cd</c><c>   1</c></rc>
    <rc><c>Cd</c><c>   1</c></rc>
    <rc><c>Cd</c><c>   1</c></rc>
    <rc><c>Cd</c><c>   1</c></rc>
    <rc><c>Cd</c><c>   1</c></rc>
    <rc><c>Cd</c><c>   1</c></rc>
    <rc><c>Cd</c><c>   1</c></rc>
    <rc><c>Cd</c><c>   1</c></rc>
    <rc><c>Cd</c><c>   1</c></rc>
    <rc><c>Cd</c><c>   1</c></rc>
    <rc><c>Cd</c><c>   1</c></rc>
    <rc><c>Cd</c><c>   1</c></rc>
    <rc><c>Cd</c><c>   1</c></rc>
    <rc><c>Cd</c><c>   1</c></rc>
    <rc><c>Cd</c><c>   1</c></rc>
    <rc><c>Cd</c><c>   1</c></rc>
    <rc><c>Cd</c><c>   1</c></rc>
    <rc><c>Cd</c><c>   1</c></rc>
    <rc><c>Cd</c><c>   1</c></rc>
    <rc><c>Cd</c><c>   1</c></rc>
    <rc><c>Cd</c><c>   1</c></rc>
    <rc><c>Cd</c><c>   1</c></rc>
    <rc><c>Cd</c><c>   1</c></rc>
    <rc><c>Te</c><c>   2</c></rc>
    <rc><c>Te</c><c>   2</c></rc>
    <rc><c>Te</c><c>   2</c></rc>
    <rc><c>Te</c><c>   2</c></rc>
    <rc><c>Te</c><c>   2</c></rc>
    <rc><c>Te</c><c>   2</c></rc>
    <rc><c>Te</c><c>   2</c></rc>
    <rc><c>Te</c><c>   2</c></rc>
    <rc><c>Te</c><c>   2</c></rc>
    <rc><c>Te</c><c>   2</c></rc>
    <rc><c>Te</c><c>   2</c></rc>
    <rc><c>Te</c><c>   2</c></rc>
    <rc><c>Te</c><c>   2</c></rc>
    <rc><c>Te</c><c>   2</c></rc>
    <rc><c>Te</c><c>   2</c></rc>
    <rc><c>Te</c><c>   2</c></rc>
    <rc><c>Te</c><c>   2</c></rc>
    <rc><c>Te</c><c>   2</c></rc>
    <rc><c>Te</c><c>   2</c></rc>
    <rc><c>Te</c><c>   2</c></rc>
    <rc><c>Te</c><c>   2</c></rc>
    <rc><c>Te</c><c>   2</c></rc>
    <rc><c>Te</c><c>   2</c></rc>
    <rc><c>Te</c><c>   2</c></rc>
    <rc><c>Te</c><c>   2</c></rc>
    <rc><c>Te</c><c>   2</c></rc>
    <rc><c>Te</c><c>   2</c></rc>
    <rc><c>Te</c><c>   2</c></rc>
    <rc><c>Te</c><c>   2</c></rc>
    <rc><c>Te</c><c>   2</c></rc>
    <rc><c>Te</c><c>   2</c></rc>
    <rc><c>Te</c><c>   2</c></rc>
   </set>
  </array>
  <array name="atomtypes" >
   <dimension dim="1">type</dimension>
   <field type="int">atomspertype</field>
   <field type="string">element</field>
   <field>mass</field>
   <field>valence</field>
   <field type="string">pseudopotential</field>
   <set>
    <rc><c>  32</c><c>Cd</c><c>    112.41100000</c><c>     12.00000000</c><c>  PAW_PBE Cd 06Sep2000                  </c></rc>
    <rc><c>  32</c><c>Te</c><c>    127.60000000</c><c>      6.00000000</c><c>  PAW_PBE Te 08Apr2002                  </c></rc>
   </set>
  </array>
 </atominfo>
 <structure name="initialpos" >
  <crystal>
   <varray name="basis" >
    <v>      12.99297215       0.00000000       0.00000000 </v>
    <v>       0.00000000      12.99297215       0.00000000 </v>
    <v>       0.00000000       0.00000000      12.99297215 </v>
   </varray>
   <i name="volume">   2193.43880629 </i>
   <varray name="rec_basis" >
    <v>       0.07696468       0.00000000       0.00000000 </v>
    <v>       0.00000000       0.07696468       0.00000000 </v>
    <v>       0.00000000       0.00000000       0.07696468 </v>
   </varray>
  </crystal>
  <varray name="positions" >
   <v>       0.00076965       0.00000000       0.00000000 </v>
   <v>       0.50000000       0.00000000       0.00000000 </v>
   <v>       0.00000000       0.50000000       0.00000000 </v>
   <v>       0.50000000       0.50000000       0.00000000 </v>
   <v>       0.00000000       0.00000000       0.50000000 </v>
   <v>       0.50000000       0.00000000       0.50000000 </v>
   <v>       0.00000000       0.50000000       0.50000000 </v>
   <v>       0.50000000       0.50000000       0.50000000 </v>
   <v>       0.00000000       0.25000000       0.25000000 </v>
   <v>       0.50000000       0.25000000       0.25000000 </v>
   <v>       0.00000000       0.75000000       0.25000000 </v>
   <v>       0.50000000       0.75000000       0.25000000 </v>
   <v>       0.00000000       0.25000000       0.75000000 </v>
   <v>       0.50000000       0.25000000       0.75000000 </v>
   <v>       0.00000000       0.75000000       0.75000000 </v>
   <v>       0.50000000       0.75000000       0.75000000 </v>
   <v>       0.25000000       0.00000000       0.25000000 </v>
   <v>       0.75000000       0.00000000       0.25000000 </v>
   <v>       0.25000000       0.50000000       0.25000000 </v>
   <v>       0.75000000       0.50000000       0.25000000 </v>
   <v>       0.25000000       0.00000000       0.75000000 </v>
   <v>       0.75000000       0.00000000       0.75000000 </v>
   <v>       0.25000000       0.50000000       0.75000000 </v>
   <v>       0.75000000       0.50000000       0.75000000 </v>
   <v>       0.25000000       0.25000000       0.00000000 </v>
   <v>       0.75000000       0.25000000       0.00000000 </v>
   <v>       0.25000000       0.75000000       0.00000000 </v>
   <v>       0.75000000       0.75000000       0.00000000 </v>
   <v>       0.25000000       0.25000000       0.50000000 </v>
   <v>       0.75000000       0.25000000       0.50000000 </v>
   <v>       0.25000000       0.75000000       0.50000000 </v>
   <v>       0.75000000       0.75000000       0.50000000 </v>
   <v>       0.12500000       0.12500000       0.12500000 </v>
   <v>       0.62500000       0.12500000       0.12500000 </v>
   <v>       0.12500000       0.62500000       0.12500000 </v>
   <v>       0.62500000       0.62500000       0.12500000 </v>
   <v>       0.12500000       0.12500000       0.62500000 </v>
   <v>       0.62500000       0.12500000       0.62500000 </v>
   <v>       0.12500000       0.62500000       0.62500000 </v>
   <v>       0.62500000       0.62500000       0.62500000 </v>
   <v>       0.12500000       0.37500000       0.37500000 </v>
   <v>       0.62500000       0.37500000       0.37500000 </v>
   <v>       0.12500000       0.87500000       0.37500000 </v>
   <v>       0.62500000       0.87500000       0.37500000 </v>
   <v>       0.12500000       0.37500000       0.87500000 </v>
   <v>       0.62500000       0.37500000       0.87500000 </v>
   <v>       0.12500000       0.87500000       0.87500000 </v>
   <v>       0.62500000       0.87500000       0.87500000 </v>
   <v>       0.37500000       0.12500000       0.37500000 </v>
   <v>       0.87500000       0.12500000       0.37500000 </v>
   <v>       0.37500000       0.62500000       0.37500000 </v>
   <v>       0.87500000       0.62500000       0.37500000 </v>
   <v>       0.37500000       0.12500000       0.87500000 </v>
   <v>       0.87500000       0.12500000       0.87500000 </v>
   <v>       0.37500000       0.62500000       0.87500000 </v>
   <v>       0.87500000       0.62500000       0.87500000 </v>
   <v>       0.37500000       0.37500000       0.12500000 </v>
   <v>       0.87500000       0.37500000       0.12500000 </v>
   <v>       0.37500000       0.87500000       0.12500000 </v>
   <v>       0.87500000       0.87500000       0.12500000 </v>
   <v>       0.37500000       0.37500000       0.62500000 </v>
   <v>       0.87500000       0.37500000       0.62500000 </v>
   <v>       0.37500000       0.87500000       0.62500000 </v>
   <v>       0.87500000       0.87500000       0.62500000 </v>
  </varray>
 </structure>
 <calculation>
  <scstep>
   <time name="dav">   30.23   30.44</time>
   <time name="total">   30.28   30.50</time>
   <energy>
    <i name="alphaZ">   1595.31164772 </i>
    <i name="ewald"> -33363.64928604 </i>
    <i name="hartreedc"> -16362.96619613 </i>
    <i name="XCdc">   -724.75335392 </i>
    <i name="pawpsdc">  44941.76741987 </i>
    <i name="pawaedc"> -42629.27134123 </i>
    <i name="eentropy">     -0.03588268 </i>
    <i name="bandstr">   1060.60062834 </i>
    <i name="atom">  48525.04422734 </i>
    <i name="e_fr_energy">   3042.04786325 </i>
    <i name="e_wo_entrp">   3042.08374593 </i>
    <i name="e_0_energy">   3042.06580459 </i>
   </energy>
  </scstep>
  <scstep>
   <time name="dav">   33.61   33.88</time>
   <time name="total">   33.61   33.88</time>
   <energy>
    <i name="e_fr_energy">      5.56000733 </i>
    <i name="e_wo_entrp">      5.56000733 </i>
    <i name="e_0_energy">      5.56000733 </i>
   </energy>
  </scstep>
  <scstep>
   <time name="dav">   34.90   35.13</time>
   <time name="total">   34.90   35.13</time>
   <energy>
    <i name="e_fr_energy">   -157.77238117 </i>
    <i name="e_wo_entrp">   -157.77238117 </i>
    <i name="e_0_energy">   -157.77238117 </i>
   </energy>
  </scstep>
  <scstep>
   <time name="dav">   35.01   35.28</time>
   <time name="total">   35.01   35.28</time>
   <energy>
    <i name="e_fr_energy">   -160.32542090 </i>
    <i name="e_wo_entrp">   -160.32542090 </i>
    <i name="e_0_energy">   -160.32542090 </i>
   </energy>
  </scstep>
  <scstep>
   <time name="dav">   34.07   34.34</time>
   <time name="total">   34.26   34.53</time>
   <energy>
    <i name="e_fr_energy">   -160.35898244 </i>
    <i name="e_wo_entrp">   -160.35898244 </i>
    <i name="e_0_energy">   -160.35898244 </i>
   </energy>
  </scstep>
  <scstep>
   <time name="dav">   33.28   33.48</time>
   <time name="total">   33.49   33.72</time>
   <energy>
    <i name="e_fr_energy">   -153.38686373 </i>
    <i name="e_wo_entrp">   -153.38686373 </i>
    <i name="e_0_energy">   -153.38686373 </i>
   </energy>
  </scstep>
  <scstep>
   <time name="dav">   32.81   33.03</time>
   <time name="total">   33.02   33.26</time>
   <energy>
    <i name="e_fr_energy">   -153.01833422 </i>
    <i name="e_wo_entrp">   -153.01833422 </i>
    <i name="e_0_energy">   -153.01833422 </i>
   </energy>
  </scstep>
  <scstep>
   <time name="dav">   33.37   33.59</time>
   <time name="total">   33.58   33.83</time>
   <energy>
    <i name="e_fr_energy">   -152.96244954 </i>
    <i name="e_wo_entrp">   -152.96244954 </i>
    <i name="e_0_energy">   -152.96244954 </i>
   </energy>
  </scstep>
  <scstep>
   <time name="dav">   32.99   33.23</time>
   <time name="total">   33.21   33.46</time>
   <energy>
    <i name="e_fr_energy">   -152.96477726 </i>
    <i name="e_wo_entrp">   -152.96477726 </i>
    <i name="e_0_energy">   -152.96477726 </i>
   </energy>
  </scstep>
  <scstep>
   <time name="dav">   34.48   34.70</time>
   <time name="total">   34.69   34.96</time>
   <energy>
    <i name="e_fr_energy">   -152.96058699 </i>
    <i name="e_wo_entrp">   -152.96058699 </i>
    <i name="e_0_energy">   -152.96058699 </i>
   </energy>
  </scstep>
  <scstep>
   <time name="dav">   33.23   33.45</time>
   <time name="total">   33.44   33.70</time>
   <energy>
    <i name="e_fr_energy">   -152.96067346 </i>
    <i name="e_wo_entrp">   -152.96067346 </i>
    <i name="e_0_energy">   -152.96067346 </i>
   </energy>
  </scstep>
  <scstep>
   <time name="dav">   29.98   30.18</time>
   <time name="total">   30.19   30.43</time>
   <energy>
    <i name="e_fr_energy">   -152.96101706 </i>
    <i name="e_wo_entrp">   -152.96101706 </i>
    <i name="e_0_energy">   -152.96101706 </i>
   </energy>
  </scstep>
  <scstep>
   <time name="dav">   27.63   27.80</time>
   <time name="total">   27.84   28.05</time>
   <energy>
    <i name="e_fr_energy">   -152.96116196 </i>
    <i name="e_wo_entrp">   -152.96116196 </i>
    <i name="e_0_energy">   -152.96116196 </i>
   </energy>
  </scstep>
  <scstep>
   <time name="dav">   24.75   24.92</time>
   <time name="total">   24.78   24.94</time>
   <energy>
    <i name="alphaZ">   1595.31164772 </i>
    <i name="ewald"> -33363.64928604 </i>
    <i name="hartreedc"> -16155.50700233 </i>
    <i name="XCdc">   -722.62169383 </i>
    <i name="pawpsdc">  55740.30504835 </i>
    <i name="pawaedc"> -53418.78749493 </i>
    <i name="eentropy">     -0.00000000 </i>
    <i name="bandstr">  -2353.05662149 </i>
    <i name="atom">  48525.04422734 </i>
    <i name="e_fr_energy">   -152.96117521 </i>
    <i name="e_wo_entrp">   -152.96117521 </i>
    <i name="e_0_energy">   -152.96117521 </i>
   </energy>
  </scstep>
  <structure>
   <crystal>
    <varray name="basis" >
     <v>      12.99297215       0.00000000       0.00000000 </v>
     <v>       0.00000000      12.99297215       0.00000000 </v>
     <v>       0.00000000       0.00000000      12.99297215 </v>
    </varray>
    <i name="volume">   2193.43880629 </i>
    <varray name="rec_basis" >
     <v>       0.07696468       0.00000000       0.00000000 </v>
     <v>       0.00000000       0.07696468       0.00000000 </v>
     <v>       0.00000000       0.00000000       0.07696468 </v>
    </varray>
   </crystal>
   <varray name="positions" >
    <v>       0.00076965       0.00000000       0.00000000 </v>
    <v>       0.50000000       0.00000000       0.00000000 </v>
    <v>       0.00000000       0.50000000       0.00000000 </v>
    <v>       0.50000000       0.50000000       0.00000000 </v>
    <v>       0.00000000       0.00000000       0.50000000 </v>
    <v>       0.50000000       0.00000000       0.50000000 </v>
    <v>       0.00000000       0.50000000       0.50000000 </v>
    <v>       0.50000000       0.50000000       0.50000000 </v>
    <v>       0.00000000       0.25000000       0.25000000 </v>
    <v>       0.50000000       0.25000000       0.25000000 </v>
    <v>       0.00000000       0.75000000       0.25000000 </v>
    <v>       0.50000000       0.75000000       0.25000000 </v>
    <v>       0.00000000       0.25000000       0.75000000 </v>
    <v>       0.50000000       0.25000000       0.75000000 </v>
    <v>       0.00000000       0.75000000       0.75000000 </v>
    <v>       0.50000000       0.75000000       0.75000000 </v>
    <v>       0.25000000       0.00000000       0.25000000 </v>
    <v>       0.75000000       0.00000000       0.25000000 </v>
    <v>       0.25000000       0.50000000       0.25000000 </v>
    <v>       0.75000000       0.50000000       0.25000000 </v>
    <v>       0.25000000       0.00000000       0.75000000 </v>
    <v>       0.75000000       0.00000000       0.75000000 </v>
    <v>       0.25000000       0.50000000       0.75000000 </v>
    <v>       0.75000000       0.50000000       0.75000000 </v>
    <v>       0.25000000       0.25000000       0.00000000 </v>
    <v>       0.75000000       0.25000000       0.00000000 </v>
    <v>       0.25000000       0.75000000       0.00000000 </v>
    <v>       0.75000000       0.75000000       0.00000000 </v>
    <v>       0.25000000       0.25000000       0.50000000 </v>
    <v>       0.75000000       0.25000000       0.50000000 </v>
    <v>       0.25000000       0.75000000       0.50000000 </v>
    <v>       0.75000000       0.75000000       0.50000000 </v>
    <v>       0.12500000       0.12500000       0.12500000 </v>
    <v>       0.62500000       0.12500000       0.12500000 </v>
    <v>       0.12500000       0.62500000       0.12500000 </v>
    <v>       0.62500000       0.62500000       0.12500000 </v>
    <v>       0.12500000       0.12500000       0.62500000 </v>
    <v>       0.62500000       0.12500000       0.62500000 </v>
    <v>       0.12500000       0.62500000       0.62500000 </v>
    <v>       0.62500000       0.62500000       0.62500000 </v>
    <v>       0.12500000       0.37500000       0.37500000 </v>
    <v>       0.62500000       0.37500000       0.37500000 </v>
    <v>       0.12500000       0.87500000       0.37500000 </v>
    <v>       0.62500000       0.87500000       0.37500000 </v>
    <v>       0.12500000       0.37500000       0.87500000 </v>
    <v>       0.62500000       0.37500000       0.87500000 </v>
    <v>       0.12500000       0.87500000       0.87500000 </v>
    <v>       0.62500000       0.87500000       0.87500000 </v>
    <v>       0.37500000       0.12500000       0.37500000 </v>
    <v>       0.87500000       0.12500000       0.37500000 </v>
    <v>       0.37500000       0.62500000       0.37500000 </v>
    <v>       0.87500000       0.62500000       0.37500000 </v>
    <v>       0.37500000       0.12500000       0.87500000 </v>
    <v>       0.87500000       0.12500000       0.87500000 </v>
    <v>       0.37500000       0.62500000       0.87500000 </v>
    <v>       0.87500000       0.62500000       0.87500000 </v>
    <v>       0.37500000       0.37500000       0.12500000 </v>
    <v>       0.87500000       0.37500000       0.12500000 </v>
    <v>       0.37500000       0.87500000       0.12500000 </v>
    <v>       0.87500000       0.87500000       0.12500000 </v>
    <v>       0.37500000       0.37500000       0.62500000 </v>
    <v>       0.87500000       0.37500000       0.62500000 </v>
    <v>       0.37500000       0.87500000       0.62500000 </v>
    <v>       0.87500000       0.87500000       0.62500000 </v>
   </varray>
  </structure>
  <varray name="forces" >
   <v>      -0.04845463       0.00000000      -0.00000000 </v>
   <v>       0.00082484      -0.00000000      -0.00000000 </v>
   <v>      -0.00015142       0.00000000      -0.00000000 </v>
   <v>       0.00044154       0.00000000      -0.00000000 </v>
   <v>      -0.00015142       0.00000000      -0.00000000 </v>
   <v>       0.00044154      -0.00000000      -0.00000000 </v>
   <v>      -0.00166389      -0.00000000      -0.00000000 </v>
   <v>       0.00022812      -0.00000000      -0.00000000 </v>
   <v>      -0.00269364       0.00120369       0.00120369 </v>
   <v>       0.00043507      -0.00022866      -0.00022866 </v>
   <v>      -0.00268887       0.00120127      -0.00120127 </v>
   <v>       0.00043775      -0.00023000       0.00023000 </v>
   <v>      -0.00268887      -0.00120127       0.00120127 </v>
   <v>       0.00043775       0.00023000      -0.00023000 </v>
   <v>      -0.00269364      -0.00120369      -0.00120369 </v>
   <v>       0.00043507       0.00022866       0.00022866 </v>
   <v>       0.00135206      -0.00119948       0.00144442 </v>
   <v>       0.00134689      -0.00120545      -0.00144053 </v>
   <v>       0.00014818       0.00022866      -0.00022681 </v>
   <v>       0.00014649       0.00023009       0.00022677 </v>
   <v>       0.00135206       0.00119948      -0.00144442 </v>
   <v>       0.00134689       0.00120545       0.00144053 </v>
   <v>       0.00014818      -0.00022866       0.00022681 </v>
   <v>       0.00014649      -0.00023009      -0.00022677 </v>
   <v>       0.00135206       0.00144442      -0.00119948 </v>
   <v>       0.00134689      -0.00144053      -0.00120545 </v>
   <v>       0.00135206      -0.00144442       0.00119948 </v>
   <v>       0.00134689       0.00144053       0.00120545 </v>
   <v>       0.00014818      -0.00022681       0.00022866 </v>
   <v>       0.00014649       0.00022677       0.00023009 </v>
   <v>       0.00014818       0.00022681      -0.00022866 </v>
   <v>       0.00014649      -0.00022677      -0.00023009 </v>
   <v>       0.01252824       0.01201223       0.01201223 </v>
   <v>      -0.00061381       0.00028164       0.00028164 </v>
   <v>       0.00029226       0.00000734      -0.00013638 </v>
   <v>      -0.00056685      -0.00038076      -0.00009639 </v>
   <v>       0.00029226      -0.00013638       0.00000734 </v>
   <v>      -0.00056685      -0.00009639      -0.00038076 </v>
   <v>       0.00031018       0.00061092       0.00061092 </v>
   <v>      -0.00022286       0.00004755       0.00004755 </v>
   <v>       0.00031018      -0.00061092      -0.00061092 </v>
   <v>      -0.00022286      -0.00004755      -0.00004755 </v>
   <v>       0.00029226       0.00013638      -0.00000734 </v>
   <v>      -0.00056685       0.00009639       0.00038076 </v>
   <v>       0.00029226      -0.00000734       0.00013638 </v>
   <v>      -0.00056685       0.00038076       0.00009639 </v>
   <v>       0.01252824      -0.01201223      -0.01201223 </v>
   <v>      -0.00061381      -0.00028164      -0.00028164 </v>
   <v>      -0.00056471       0.00009643      -0.00037931 </v>
   <v>       0.00029349       0.00013617       0.00000597 </v>
   <v>      -0.00022280      -0.00004818       0.00004818 </v>
   <v>       0.00031058      -0.00060977       0.00060977 </v>
   <v>      -0.00061540      -0.00028217       0.00028217 </v>
   <v>       0.01238265      -0.01172122       0.01172122 </v>
   <v>      -0.00056471       0.00037931      -0.00009643 </v>
   <v>       0.00029349      -0.00000597      -0.00013617 </v>
   <v>      -0.00056471      -0.00037931       0.00009643 </v>
   <v>       0.00029349       0.00000597       0.00013617 </v>
   <v>      -0.00061540       0.00028217      -0.00028217 </v>
   <v>       0.01238265       0.01172122      -0.01172122 </v>
   <v>      -0.00022280       0.00004818      -0.00004818 </v>
   <v>       0.00031058       0.00060977      -0.00060977 </v>
   <v>      -0.00056471      -0.00009643       0.00037931 </v>
   <v>       0.00029349      -0.00013617      -0.00000597 </v>
  </varray>
  <varray name="stress" >
   <v>      20.11515261       0.00000000       0.00000000 </v>
   <v>      -0.00000000      20.11509729       0.04744934 </v>
   <v>       0.00000000       0.04744934      20.11509729 </v>
  </varray>
  <energy>
   <i name="e_fr_energy">   -152.96117521 </i>
   <i name="e_wo_entrp">   -152.96117521 </i>
   <i name="e_0_energy">   -152.96117521 </i>
  </energy>
  <time name="totalsc">  511.21  515.80</time>
  <eigenvalues>
   <array>
    <dimension dim="1">band</dimension>
    <dimension dim="2">kpoint</dimension>
    <dimension dim="3">spin</dimension>
    <field>eigene</field>
    <field>occ</field>
    <set>
     <set comment="spin 1">
      <set comment="kpoint 1">
       <r>   -8.8516    1.0000 </r>
       <r>   -8.5931    1.0000 </r>
       <r>   -8.5923    1.0000 </r>
       <r>   -8.5913    1.0000 </r>
       <r>   -8.5913    1.0000 </r>
       <r>   -8.5903    1.0000 </r>
       <r>   -8.5897    1.0000 </r>
       <r>   -8.4675    1.0000 </r>
       <r>   -8.4673    1.0000 </r>
       <r>   -8.4640    1.0000 </r>
       <r>   -8.4640    1.0000 </r>
       <r>   -8.4640    1.0000 </r>
       <r>   -8.4640    1.0000 </r>
       <r>   -8.4639    1.0000 </r>
       <r>   -8.4639    1.0000 </r>
       <r>   -8.4637    1.0000 </r>
       <r>   -8.4637    1.0000 </r>
       <r>   -8.4624    1.0000 </r>
       <r>   -8.4623    1.0000 </r>
       <r>   -8.4615    1.0000 </r>
       <r>   -8.4615    1.0000 </r>
       <r>   -8.4591    1.0000 </r>
       <r>   -8.4587    1.0000 </r>
       <r>   -8.3464    1.0000 </r>
       <r>   -8.3440    1.0000 </r>
       <r>   -8.3440    1.0000 </r>
       <r>   -8.3439    1.0000 </r>
       <r>   -8.3438    1.0000 </r>
       <r>   -8.3432    1.0000 </r>
       <r>   -8.3425    1.0000 </r>
       <r>   -8.3423    1.0000 </r>
       <r>   -8.3402    1.0000 </r>
       <r>   -5.9699    1.0000 </r>
       <r>   -5.9697    1.0000 </r>
       <r>   -5.9696    1.0000 </r>
       <r>   -5.9078    1.0000 </r>
       <r>   -5.9075    1.0000 </r>
       <r>   -5.9075    1.0000 </r>
       <r>   -5.9075    1.0000 </r>
       <r>   -5.9074    1.0000 </r>
       <r>   -5.9074    1.0000 </r>
       <r>   -5.9073    1.0000 </r>
       <r>   -5.9072    1.0000 </r>
       <r>   -5.8948    1.0000 </r>
       <r>   -5.8943    1.0000 </r>
       <r>   -5.8941    1.0000 </r>
       <r>   -5.8941    1.0000 </r>
       <r>   -5.8940    1.0000 </r>
       <r>   -5.8940    1.0000 </r>
       <r>   -5.8939    1.0000 </r>
       <r>   -5.8938    1.0000 </r>
       <r>   -5.8938    1.0000 </r>
       <r>   -5.8936    1.0000 </r>
       <r>   -5.8936    1.0000 </r>
       <r>   -5.8934    1.0000 </r>
       <r>   -5.8919    1.0000 </r>
       <r>   -5.8918    1.0000 </r>
       <r>   -5.8916    1.0000 </r>
       <r>   -5.8916    1.0000 </r>
       <r>   -5.8915    1.0000 </r>
       <r>   -5.8914    1.0000 </r>
       <r>   -5.8914    1.0000 </r>
       <r>   -5.8914    1.0000 </r>
       <r>   -5.8913    1.0000 </r>
       <r>   -5.8911    1.0000 </r>
       <r>   -5.8911    1.0000 </r>
       <r>   -5.8908    1.0000 </r>
       <r>   -5.8895    1.0000 </r>
       <r>   -5.8894    1.0000 </r>
       <r>   -5.8892    1.0000 </r>
       <r>   -5.8892    1.0000 </r>
       <r>   -5.8892    1.0000 </r>
       <r>   -5.8892    1.0000 </r>
       <r>   -5.8891    1.0000 </r>
       <r>   -5.8890    1.0000 </r>
       <r>   -5.8890    1.0000 </r>
       <r>   -5.8889    1.0000 </r>
       <r>   -5.8887    1.0000 </r>
       <r>   -5.8885    1.0000 </r>
       <r>   -5.8489    1.0000 </r>
       <r>   -5.8487    1.0000 </r>
       <r>   -5.8486    1.0000 </r>
       <r>   -5.8486    1.0000 </r>
       <r>   -5.8486    1.0000 </r>
       <r>   -5.8483    1.0000 </r>
       <r>   -5.8438    1.0000 </r>
       <r>   -5.8436    1.0000 </r>
       <r>   -5.8436    1.0000 </r>
       <r>   -5.8436    1.0000 </r>
       <r>   -5.8436    1.0000 </r>
       <r>   -5.8434    1.0000 </r>
       <r>   -5.8162    1.0000 </r>
       <r>   -5.8161    1.0000 </r>
       <r>   -5.8161    1.0000 </r>
       <r>   -5.8122    1.0000 </r>
       <r>   -5.8120    1.0000 </r>
       <r>   -5.8120    1.0000 </r>
       <r>   -5.8120    1.0000 </r>
       <r>   -5.8120    1.0000 </r>
       <r>   -5.8117    1.0000 </r>
       <r>   -5.8099    1.0000 </r>
       <r>   -5.8097    1.0000 </r>
       <r>   -5.8097    1.0000 </r>
       <r>   -5.8097    1.0000 </r>
       <r>   -5.8097    1.0000 </r>
       <r>   -5.8095    1.0000 </r>
       <r>   -5.7425    1.0000 </r>
       <r>   -5.7425    1.0000 </r>
       <r>   -5.7423    1.0000 </r>
       <r>   -5.7423    1.0000 </r>
       <r>   -5.7421    1.0000 </r>
       <r>   -5.7421    1.0000 </r>
       <r>   -5.7223    1.0000 </r>
       <r>   -5.7221    1.0000 </r>
       <r>   -5.7221    1.0000 </r>
       <r>   -5.7219    1.0000 </r>
       <r>   -5.7218    1.0000 </r>
       <r>   -5.7218    1.0000 </r>
       <r>   -5.7218    1.0000 </r>
       <r>   -5.7218    1.0000 </r>
       <r>   -5.7217    1.0000 </r>
       <r>   -5.7217    1.0000 </r>
       <r>   -5.7217    1.0000 </r>
       <r>   -5.7217    1.0000 </r>
       <r>   -5.7209    1.0000 </r>
       <r>   -5.7208    1.0000 </r>
       <r>   -5.7208    1.0000 </r>
       <r>   -5.7208    1.0000 </r>
       <r>   -5.7207    1.0000 </r>
       <r>   -5.7207    1.0000 </r>
       <r>   -5.7207    1.0000 </r>
       <r>   -5.7206    1.0000 </r>
       <r>   -5.7205    1.0000 </r>
       <r>   -5.7204    1.0000 </r>
       <r>   -5.7204    1.0000 </r>
       <r>   -5.7203    1.0000 </r>
       <r>   -5.7138    1.0000 </r>
       <r>   -5.7137    1.0000 </r>
       <r>   -5.7136    1.0000 </r>
       <r>   -5.7135    1.0000 </r>
       <r>   -5.7134    1.0000 </r>
       <r>   -5.7134    1.0000 </r>
       <r>   -5.7133    1.0000 </r>
       <r>   -5.7132    1.0000 </r>
       <r>   -5.7052    1.0000 </r>
       <r>   -5.7052    1.0000 </r>
       <r>   -5.7051    1.0000 </r>
       <r>   -5.7051    1.0000 </r>
       <r>   -5.7051    1.0000 </r>
       <r>   -5.7051    1.0000 </r>
       <r>   -5.7051    1.0000 </r>
       <r>   -5.7051    1.0000 </r>
       <r>   -5.6988    1.0000 </r>
       <r>   -5.6987    1.0000 </r>
       <r>   -5.6986    1.0000 </r>
       <r>   -5.6986    1.0000 </r>
       <r>   -5.6984    1.0000 </r>
       <r>   -5.6984    1.0000 </r>
       <r>   -5.6850    1.0000 </r>
       <r>   -5.6849    1.0000 </r>
       <r>   -5.6848    1.0000 </r>
       <r>   -5.6848    1.0000 </r>
       <r>   -5.6847    1.0000 </r>
       <r>   -5.6846    1.0000 </r>
       <r>   -5.6840    1.0000 </r>
       <r>   -5.6840    1.0000 </r>
       <r>   -5.6840    1.0000 </r>
       <r>   -5.4433    1.0000 </r>
       <r>   -5.4432    1.0000 </r>
       <r>   -5.4432    1.0000 </r>
       <r>   -5.4432    1.0000 </r>
       <r>   -5.4431    1.0000 </r>
       <r>   -5.4430    1.0000 </r>
       <r>   -5.4430    1.0000 </r>
       <r>   -5.4429    1.0000 </r>
       <r>   -5.4428    1.0000 </r>
       <r>   -5.4428    1.0000 </r>
       <r>   -5.4428    1.0000 </r>
       <r>   -5.4427    1.0000 </r>
       <r>   -5.3684    1.0000 </r>
       <r>   -5.3683    1.0000 </r>
       <r>   -5.3682    1.0000 </r>
       <r>   -5.3681    1.0000 </r>
       <r>   -5.2317    1.0000 </r>
       <r>   -5.2315    1.0000 </r>
       <r>   -5.2314    1.0000 </r>
       <r>   -5.1517    1.0000 </r>
       <r>   -5.1517    1.0000 </r>
       <r>   -5.1516    1.0000 </r>
       <r>   -5.1516    1.0000 </r>
       <r>   -5.1516    1.0000 </r>
       <r>   -5.1516    1.0000 </r>
       <r>   -2.1032    1.0000 </r>
       <r>   -2.1025    1.0000 </r>
       <r>   -2.1021    1.0000 </r>
       <r>   -2.1014    1.0000 </r>
       <r>   -1.9912    1.0000 </r>
       <r>   -1.9912    1.0000 </r>
       <r>   -1.9911    1.0000 </r>
       <r>   -1.8692    1.0000 </r>
       <r>   -1.8692    1.0000 </r>
       <r>   -1.8689    1.0000 </r>
       <r>   -1.8689    1.0000 </r>
       <r>   -1.8685    1.0000 </r>
       <r>   -1.8685    1.0000 </r>
       <r>   -1.4036    1.0000 </r>
       <r>   -1.4026    1.0000 </r>
       <r>   -1.4025    1.0000 </r>
       <r>   -1.4024    1.0000 </r>
       <r>   -1.4019    1.0000 </r>
       <r>   -1.4019    1.0000 </r>
       <r>   -1.4018    1.0000 </r>
       <r>   -1.4017    1.0000 </r>
       <r>   -1.4013    1.0000 </r>
       <r>   -1.4012    1.0000 </r>
       <r>   -1.4011    1.0000 </r>
       <r>   -1.4000    1.0000 </r>
       <r>   -0.3720    1.0000 </r>
       <r>   -0.3719    1.0000 </r>
       <r>   -0.3717    1.0000 </r>
       <r>   -0.3717    1.0000 </r>
       <r>   -0.3714    1.0000 </r>
       <r>   -0.3713    1.0000 </r>
       <r>   -0.0145    1.0000 </r>
       <r>   -0.0142    1.0000 </r>
       <r>   -0.0136    1.0000 </r>
       <r>   -0.0136    1.0000 </r>
       <r>   -0.0131    1.0000 </r>
       <r>   -0.0127    1.0000 </r>
       <r>    0.1151    1.0000 </r>
       <r>    0.1154    1.0000 </r>
       <r>    0.1154    1.0000 </r>
       <r>    0.1155    1.0000 </r>
       <r>    0.1155    1.0000 </r>
       <r>    0.1158    1.0000 </r>
       <r>    0.1621    1.0000 </r>
       <r>    0.1623    1.0000 </r>
       <r>    0.1629    1.0000 </r>
       <r>    0.1633    1.0000 </r>
       <r>    0.1633    1.0000 </r>
       <r>    0.1633    1.0000 </r>
       <r>    0.1636    1.0000 </r>
       <r>    0.1636    1.0000 </r>
       <r>    0.1636    1.0000 </r>
       <r>    0.1640    1.0000 </r>
       <r>    0.1646    1.0000 </r>
       <r>    0.1649    1.0000 </r>
       <r>    0.4416    1.0000 </r>
       <r>    0.4421    1.0000 </r>
       <r>    0.4422    1.0000 </r>
       <r>    0.4422    1.0000 </r>
       <r>    0.4423    1.0000 </r>
       <r>    0.4428    1.0000 </r>
       <r>    1.2096    1.0000 </r>
       <r>    1.2104    1.0000 </r>
       <r>    1.2107    1.0000 </r>
       <r>    1.2111    1.0000 </r>
       <r>    1.2112    1.0000 </r>
       <r>    1.2112    1.0000 </r>
       <r>    1.2112    1.0000 </r>
       <r>    1.2112    1.0000 </r>
       <r>    1.2113    1.0000 </r>
       <r>    1.2117    1.0000 </r>
       <r>    1.2120    1.0000 </r>
       <r>    1.2128    1.0000 </r>
       <r>    1.4856    1.0000 </r>
       <r>    1.4866    1.0000 </r>
       <r>    1.4867    1.0000 </r>
       <r>    1.4869    1.0000 </r>
       <r>    1.4873    1.0000 </r>
       <r>    1.4873    1.0000 </r>
       <r>    1.4874    1.0000 </r>
       <r>    1.4874    1.0000 </r>
       <r>    1.4878    1.0000 </r>
       <r>    1.4880    1.0000 </r>
       <r>    1.4881    1.0000 </r>
       <r>    1.4890    1.0000 </r>
       <r>    1.5171    1.0000 </r>
       <r>    1.5178    1.0000 </r>
       <r>    1.5178    1.0000 </r>
       <r>    1.5180    1.0000 </r>
       <r>    1.5184    1.0000 </r>
       <r>    1.5186    1.0000 </r>
       <r>    1.5186    1.0000 </r>
       <r>    1.5194    1.0000 </r>
       <r>    2.2826    1.0000 </r>
       <r>    2.2829    1.0000 </r>
       <r>    2.2831    1.0000 </r>
       <r>    3.0290    0.0000 </r>
       <r>    4.0920    0.0000 </r>
       <r>    4.0922    0.0000 </r>
       <r>    4.0926    0.0000 </r>
       <r>    4.0928    0.0000 </r>
       <r>    4.9045    0.0000 </r>
       <r>    4.9055    0.0000 </r>
       <r>    4.9065    0.0000 </r>
       <r>    4.9524    0.0000 </r>
       <r>    4.9524    0.0000 </r>
       <r>    4.9524    0.0000 </r>
       <r>    5.2108    0.0000 </r>
       <r>    5.2113    0.0000 </r>
       <r>    5.2113    0.0000 </r>
       <r>    5.2113    0.0000 </r>
       <r>    5.2114    0.0000 </r>
       <r>    5.2119    0.0000 </r>
       <r>    5.4057    0.0000 </r>
       <r>    5.4059    0.0000 </r>
       <r>    5.4062    0.0000 </r>
       <r>    5.4063    0.0000 </r>
       <r>    5.4066    0.0000 </r>
       <r>    5.4067    0.0000 </r>
       <r>    5.4068    0.0000 </r>
       <r>    5.4068    0.0000 </r>
       <r>    5.4071    0.0000 </r>
       <r>    5.4072    0.0000 </r>
       <r>    5.4076    0.0000 </r>
       <r>    5.4077    0.0000 </r>
       <r>    5.6248    0.0000 </r>
       <r>    5.6248    0.0000 </r>
       <r>    5.6255    0.0000 </r>
       <r>    5.6255    0.0000 </r>
       <r>    5.6262    0.0000 </r>
       <r>    5.6263    0.0000 </r>
       <r>    6.5103    0.0000 </r>
       <r>    6.5103    0.0000 </r>
       <r>    6.5107    0.0000 </r>
       <r>    6.5107    0.0000 </r>
       <r>    6.5111    0.0000 </r>
       <r>    6.5111    0.0000 </r>
       <r>    6.8882    0.0000 </r>
       <r>    6.8884    0.0000 </r>
       <r>    6.8886    0.0000 </r>
       <r>    6.9669    0.0000 </r>
       <r>    6.9680    0.0000 </r>
       <r>    6.9683    0.0000 </r>
       <r>    6.9683    0.0000 </r>
       <r>    6.9685    0.0000 </r>
       <r>    6.9697    0.0000 </r>
       <r>    7.4717    0.0000 </r>
       <r>    7.4717    0.0000 </r>
       <r>    7.4728    0.0000 </r>
       <r>    7.4729    0.0000 </r>
       <r>    7.4730    0.0000 </r>
       <r>    7.4731    0.0000 </r>
       <r>    7.4741    0.0000 </r>
       <r>    7.4741    0.0000 </r>
       <r>    7.4907    0.0000 </r>
       <r>    7.4909    0.0000 </r>
       <r>    7.4913    0.0000 </r>
       <r>    7.4913    0.0000 </r>
       <r>    7.4915    0.0000 </r>
       <r>    7.4916    0.0000 </r>
       <r>    7.4917    0.0000 </r>
       <r>    7.4918    0.0000 </r>
       <r>    7.4919    0.0000 </r>
       <r>    7.4919    0.0000 </r>
       <r>    7.4925    0.0000 </r>
       <r>    7.4926    0.0000 </r>
       <r>    7.8374    0.0000 </r>
       <r>    7.8382    0.0000 </r>
       <r>    7.8383    0.0000 </r>
       <r>    7.8383    0.0000 </r>
       <r>    7.8384    0.0000 </r>
       <r>    7.8392    0.0000 </r>
       <r>    7.9331    0.0000 </r>
       <r>    7.9336    0.0000 </r>
       <r>    7.9336    0.0000 </r>
       <r>    7.9345    0.0000 </r>
       <r>    7.9346    0.0000 </r>
       <r>    7.9346    0.0000 </r>
       <r>    7.9347    0.0000 </r>
       <r>    7.9347    0.0000 </r>
       <r>    7.9348    0.0000 </r>
       <r>    7.9357    0.0000 </r>
       <r>    7.9358    0.0000 </r>
       <r>    7.9362    0.0000 </r>
       <r>    8.1220    0.0000 </r>
       <r>    8.1235    0.0000 </r>
       <r>    8.1236    0.0000 </r>
       <r>    8.1237    0.0000 </r>
       <r>    8.1239    0.0000 </r>
       <r>    8.1241    0.0000 </r>
       <r>    8.1242    0.0000 </r>
       <r>    8.1248    0.0000 </r>
      </set>
      <set comment="kpoint 2">
       <r>   -8.8167    1.0000 </r>
       <r>   -8.7211    1.0000 </r>
       <r>   -8.5749    1.0000 </r>
       <r>   -8.5740    1.0000 </r>
       <r>   -8.5738    1.0000 </r>
       <r>   -8.5729    1.0000 </r>
       <r>   -8.5278    1.0000 </r>
       <r>   -8.5268    1.0000 </r>
       <r>   -8.5267    1.0000 </r>
       <r>   -8.5258    1.0000 </r>
       <r>   -8.4659    1.0000 </r>
       <r>   -8.4649    1.0000 </r>
       <r>   -8.4638    1.0000 </r>
       <r>   -8.4631    1.0000 </r>
       <r>   -8.4630    1.0000 </r>
       <r>   -8.4620    1.0000 </r>
       <r>   -8.4620    1.0000 </r>
       <r>   -8.4603    1.0000 </r>
       <r>   -8.4599    1.0000 </r>
       <r>   -8.4040    1.0000 </r>
       <r>   -8.4029    1.0000 </r>
       <r>   -8.4029    1.0000 </r>
       <r>   -8.4019    1.0000 </r>
       <r>   -8.3742    1.0000 </r>
       <r>   -8.3606    1.0000 </r>
       <r>   -8.3596    1.0000 </r>
       <r>   -8.3594    1.0000 </r>
       <r>   -8.3586    1.0000 </r>
       <r>   -8.3452    1.0000 </r>
       <r>   -8.3436    1.0000 </r>
       <r>   -8.3427    1.0000 </r>
       <r>   -8.3408    1.0000 </r>
       <r>   -5.9596    1.0000 </r>
       <r>   -5.9594    1.0000 </r>
       <r>   -5.9495    1.0000 </r>
       <r>   -5.9325    1.0000 </r>
       <r>   -5.9322    1.0000 </r>
       <r>   -5.9062    1.0000 </r>
       <r>   -5.9060    1.0000 </r>
       <r>   -5.9059    1.0000 </r>
       <r>   -5.9057    1.0000 </r>
       <r>   -5.9041    1.0000 </r>
       <r>   -5.9038    1.0000 </r>
       <r>   -5.9037    1.0000 </r>
       <r>   -5.9037    1.0000 </r>
       <r>   -5.9037    1.0000 </r>
       <r>   -5.9036    1.0000 </r>
       <r>   -5.9034    1.0000 </r>
       <r>   -5.9034    1.0000 </r>
       <r>   -5.9033    1.0000 </r>
       <r>   -5.9033    1.0000 </r>
       <r>   -5.9031    1.0000 </r>
       <r>   -5.9030    1.0000 </r>
       <r>   -5.8961    1.0000 </r>
       <r>   -5.8957    1.0000 </r>
       <r>   -5.8955    1.0000 </r>
       <r>   -5.8954    1.0000 </r>
       <r>   -5.8953    1.0000 </r>
       <r>   -5.8952    1.0000 </r>
       <r>   -5.8950    1.0000 </r>
       <r>   -5.8950    1.0000 </r>
       <r>   -5.8946    1.0000 </r>
       <r>   -5.8946    1.0000 </r>
       <r>   -5.8944    1.0000 </r>
       <r>   -5.8943    1.0000 </r>
       <r>   -5.8943    1.0000 </r>
       <r>   -5.8943    1.0000 </r>
       <r>   -5.8942    1.0000 </r>
       <r>   -5.8940    1.0000 </r>
       <r>   -5.8872    1.0000 </r>
       <r>   -5.8768    1.0000 </r>
       <r>   -5.8766    1.0000 </r>
       <r>   -5.8766    1.0000 </r>
       <r>   -5.8764    1.0000 </r>
       <r>   -5.8672    1.0000 </r>
       <r>   -5.8669    1.0000 </r>
       <r>   -5.8669    1.0000 </r>
       <r>   -5.8667    1.0000 </r>
       <r>   -5.8598    1.0000 </r>
       <r>   -5.8595    1.0000 </r>
       <r>   -5.8595    1.0000 </r>
       <r>   -5.8593    1.0000 </r>
       <r>   -5.8529    1.0000 </r>
       <r>   -5.8526    1.0000 </r>
       <r>   -5.8481    1.0000 </r>
       <r>   -5.8478    1.0000 </r>
       <r>   -5.8478    1.0000 </r>
       <r>   -5.8476    1.0000 </r>
       <r>   -5.8405    1.0000 </r>
       <r>   -5.8405    1.0000 </r>
       <r>   -5.8399    1.0000 </r>
       <r>   -5.8398    1.0000 </r>
       <r>   -5.8304    1.0000 </r>
       <r>   -5.8304    1.0000 </r>
       <r>   -5.8214    1.0000 </r>
       <r>   -5.8212    1.0000 </r>
       <r>   -5.8201    1.0000 </r>
       <r>   -5.8200    1.0000 </r>
       <r>   -5.8114    1.0000 </r>
       <r>   -5.8018    1.0000 </r>
       <r>   -5.7878    1.0000 </r>
       <r>   -5.7878    1.0000 </r>
       <r>   -5.7824    1.0000 </r>
       <r>   -5.7824    1.0000 </r>
       <r>   -5.7823    1.0000 </r>
       <r>   -5.7823    1.0000 </r>
       <r>   -5.7603    1.0000 </r>
       <r>   -5.7603    1.0000 </r>
       <r>   -5.7430    1.0000 </r>
       <r>   -5.7428    1.0000 </r>
       <r>   -5.7428    1.0000 </r>
       <r>   -5.7427    1.0000 </r>
       <r>   -5.7410    1.0000 </r>
       <r>   -5.7408    1.0000 </r>
       <r>   -5.7408    1.0000 </r>
       <r>   -5.7406    1.0000 </r>
       <r>   -5.7334    1.0000 </r>
       <r>   -5.7332    1.0000 </r>
       <r>   -5.7332    1.0000 </r>
       <r>   -5.7329    1.0000 </r>
       <r>   -5.7215    1.0000 </r>
       <r>   -5.7174    1.0000 </r>
       <r>   -5.7173    1.0000 </r>
       <r>   -5.7173    1.0000 </r>
       <r>   -5.7173    1.0000 </r>
       <r>   -5.7169    1.0000 </r>
       <r>   -5.7161    1.0000 </r>
       <r>   -5.7161    1.0000 </r>
       <r>   -5.7160    1.0000 </r>
       <r>   -5.7159    1.0000 </r>
       <r>   -5.7134    1.0000 </r>
       <r>   -5.7131    1.0000 </r>
       <r>   -5.7131    1.0000 </r>
       <r>   -5.7130    1.0000 </r>
       <r>   -5.7125    1.0000 </r>
       <r>   -5.7124    1.0000 </r>
       <r>   -5.7124    1.0000 </r>
       <r>   -5.7122    1.0000 </r>
       <r>   -5.7116    1.0000 </r>
       <r>   -5.7095    1.0000 </r>
       <r>   -5.7093    1.0000 </r>
       <r>   -5.7093    1.0000 </r>
       <r>   -5.7090    1.0000 </r>
       <r>   -5.7090    1.0000 </r>
       <r>   -5.7090    1.0000 </r>
       <r>   -5.7089    1.0000 </r>
       <r>   -5.7089    1.0000 </r>
       <r>   -5.7084    1.0000 </r>
       <r>   -5.7082    1.0000 </r>
       <r>   -5.7082    1.0000 </r>
       <r>   -5.7082    1.0000 </r>
       <r>   -5.7059    1.0000 </r>
       <r>   -5.7015    1.0000 </r>
       <r>   -5.7012    1.0000 </r>
       <r>   -5.7012    1.0000 </r>
       <r>   -5.7010    1.0000 </r>
       <r>   -5.7008    1.0000 </r>
       <r>   -5.7006    1.0000 </r>
       <r>   -5.6913    1.0000 </r>
       <r>   -5.6881    1.0000 </r>
       <r>   -5.6880    1.0000 </r>
       <r>   -5.6857    1.0000 </r>
       <r>   -5.6620    1.0000 </r>
       <r>   -5.6619    1.0000 </r>
       <r>   -5.6619    1.0000 </r>
       <r>   -5.6618    1.0000 </r>
       <r>   -5.5783    1.0000 </r>
       <r>   -5.5782    1.0000 </r>
       <r>   -5.5782    1.0000 </r>
       <r>   -5.5782    1.0000 </r>
       <r>   -5.5228    1.0000 </r>
       <r>   -5.4254    1.0000 </r>
       <r>   -5.4254    1.0000 </r>
       <r>   -5.4251    1.0000 </r>
       <r>   -5.4250    1.0000 </r>
       <r>   -5.3880    1.0000 </r>
       <r>   -5.3879    1.0000 </r>
       <r>   -5.3877    1.0000 </r>
       <r>   -5.3876    1.0000 </r>
       <r>   -5.3254    1.0000 </r>
       <r>   -5.2989    1.0000 </r>
       <r>   -5.2988    1.0000 </r>
       <r>   -5.2988    1.0000 </r>
       <r>   -5.2987    1.0000 </r>
       <r>   -5.2108    1.0000 </r>
       <r>   -5.2106    1.0000 </r>
       <r>   -5.1911    1.0000 </r>
       <r>   -5.1910    1.0000 </r>
       <r>   -5.1910    1.0000 </r>
       <r>   -5.1909    1.0000 </r>
       <r>   -5.1711    1.0000 </r>
       <r>   -5.1710    1.0000 </r>
       <r>   -1.9688    1.0000 </r>
       <r>   -1.9678    1.0000 </r>
       <r>   -1.9674    1.0000 </r>
       <r>   -1.9669    1.0000 </r>
       <r>   -1.9636    1.0000 </r>
       <r>   -1.9632    1.0000 </r>
       <r>   -1.9028    1.0000 </r>
       <r>   -1.9028    1.0000 </r>
       <r>   -1.8298    1.0000 </r>
       <r>   -1.8295    1.0000 </r>
       <r>   -1.8295    1.0000 </r>
       <r>   -1.8292    1.0000 </r>
       <r>   -1.7631    1.0000 </r>
       <r>   -1.6850    1.0000 </r>
       <r>   -1.6847    1.0000 </r>
       <r>   -1.6847    1.0000 </r>
       <r>   -1.6844    1.0000 </r>
       <r>   -1.6355    1.0000 </r>
       <r>   -1.6346    1.0000 </r>
       <r>   -1.6343    1.0000 </r>
       <r>   -1.6334    1.0000 </r>
       <r>   -1.1730    1.0000 </r>
       <r>   -1.0025    1.0000 </r>
       <r>   -1.0022    1.0000 </r>
       <r>   -1.0022    1.0000 </r>
       <r>   -1.0019    1.0000 </r>
       <r>   -0.5827    1.0000 </r>
       <r>   -0.5823    1.0000 </r>
       <r>   -0.5823    1.0000 </r>
       <r>   -0.5820    1.0000 </r>
       <r>   -0.1777    1.0000 </r>
       <r>   -0.1775    1.0000 </r>
       <r>   -0.1774    1.0000 </r>
       <r>   -0.1772    1.0000 </r>
       <r>   -0.1204    1.0000 </r>
       <r>   -0.1201    1.0000 </r>
       <r>   -0.1201    1.0000 </r>
       <r>   -0.1199    1.0000 </r>
       <r>    0.0957    1.0000 </r>
       <r>    0.0958    1.0000 </r>
       <r>    0.1902    1.0000 </r>
       <r>    0.1910    1.0000 </r>
       <r>    0.3224    1.0000 </r>
       <r>    0.3224    1.0000 </r>
       <r>    0.3528    1.0000 </r>
       <r>    0.3538    1.0000 </r>
       <r>    0.5195    1.0000 </r>
       <r>    0.5196    1.0000 </r>
       <r>    0.5199    1.0000 </r>
       <r>    0.5199    1.0000 </r>
       <r>    0.5206    1.0000 </r>
       <r>    0.5209    1.0000 </r>
       <r>    0.5212    1.0000 </r>
       <r>    0.5213    1.0000 </r>
       <r>    0.5356    1.0000 </r>
       <r>    0.5359    1.0000 </r>
       <r>    0.5464    1.0000 </r>
       <r>    0.5875    1.0000 </r>
       <r>    0.5879    1.0000 </r>
       <r>    0.5879    1.0000 </r>
       <r>    0.5882    1.0000 </r>
       <r>    0.8043    1.0000 </r>
       <r>    0.8046    1.0000 </r>
       <r>    1.0144    1.0000 </r>
       <r>    1.0148    1.0000 </r>
       <r>    1.0149    1.0000 </r>
       <r>    1.0153    1.0000 </r>
       <r>    1.0757    1.0000 </r>
       <r>    1.0762    1.0000 </r>
       <r>    1.0762    1.0000 </r>
       <r>    1.0767    1.0000 </r>
       <r>    1.1663    1.0000 </r>
       <r>    1.1663    1.0000 </r>
       <r>    1.1669    1.0000 </r>
       <r>    1.1669    1.0000 </r>
       <r>    1.3591    1.0000 </r>
       <r>    1.3596    1.0000 </r>
       <r>    1.3596    1.0000 </r>
       <r>    1.3602    1.0000 </r>
       <r>    1.4939    1.0000 </r>
       <r>    1.4945    1.0000 </r>
       <r>    1.4953    1.0000 </r>
       <r>    1.4958    1.0000 </r>
       <r>    1.5095    1.0000 </r>
       <r>    1.5100    1.0000 </r>
       <r>    1.5108    1.0000 </r>
       <r>    1.5114    1.0000 </r>
       <r>    1.5254    1.0000 </r>
       <r>    1.5561    1.0000 </r>
       <r>    1.5567    1.0000 </r>
       <r>    1.5567    1.0000 </r>
       <r>    1.5573    1.0000 </r>
       <r>    1.6861    1.0000 </r>
       <r>    1.6865    1.0000 </r>
       <r>    2.1052    1.0000 </r>
       <r>    2.1057    1.0000 </r>
       <r>    3.8058    0.0000 </r>
       <r>    4.4542    0.0000 </r>
       <r>    4.4545    0.0000 </r>
       <r>    4.4546    0.0000 </r>
       <r>    4.4550    0.0000 </r>
       <r>    4.7542    0.0000 </r>
       <r>    4.8816    0.0000 </r>
       <r>    5.0188    0.0000 </r>
       <r>    5.0985    0.0000 </r>
       <r>    5.0990    0.0000 </r>
       <r>    5.0993    0.0000 </r>
       <r>    5.0997    0.0000 </r>
       <r>    5.1471    0.0000 </r>
       <r>    5.2277    0.0000 </r>
       <r>    5.2296    0.0000 </r>
       <r>    5.2535    0.0000 </r>
       <r>    5.2535    0.0000 </r>
       <r>    5.3274    0.0000 </r>
       <r>    5.3274    0.0000 </r>
       <r>    5.3274    0.0000 </r>
       <r>    5.3275    0.0000 </r>
       <r>    5.3896    0.0000 </r>
       <r>    5.3896    0.0000 </r>
       <r>    5.3897    0.0000 </r>
       <r>    5.3897    0.0000 </r>
       <r>    5.4442    0.0000 </r>
       <r>    5.6679    0.0000 </r>
       <r>    5.6681    0.0000 </r>
       <r>    5.6681    0.0000 </r>
       <r>    5.6683    0.0000 </r>
       <r>    5.9059    0.0000 </r>
       <r>    5.9067    0.0000 </r>
       <r>    5.9067    0.0000 </r>
       <r>    5.9074    0.0000 </r>
       <r>    5.9798    0.0000 </r>
       <r>    5.9798    0.0000 </r>
       <r>    6.0085    0.0000 </r>
       <r>    6.0796    0.0000 </r>
       <r>    6.0812    0.0000 </r>
       <r>    6.1640    0.0000 </r>
       <r>    6.1640    0.0000 </r>
       <r>    6.1640    0.0000 </r>
       <r>    6.1641    0.0000 </r>
       <r>    6.5732    0.0000 </r>
       <r>    6.7753    0.0000 </r>
       <r>    6.7760    0.0000 </r>
       <r>    6.7760    0.0000 </r>
       <r>    6.7766    0.0000 </r>
       <r>    7.1375    0.0000 </r>
       <r>    7.1376    0.0000 </r>
       <r>    7.1377    0.0000 </r>
       <r>    7.1378    0.0000 </r>
       <r>    7.1513    0.0000 </r>
       <r>    7.1517    0.0000 </r>
       <r>    7.2409    0.0000 </r>
       <r>    7.2412    0.0000 </r>
       <r>    7.2419    0.0000 </r>
       <r>    7.2421    0.0000 </r>
       <r>    7.3266    0.0000 </r>
       <r>    7.3273    0.0000 </r>
       <r>    7.3278    0.0000 </r>
       <r>    7.3285    0.0000 </r>
       <r>    7.3732    0.0000 </r>
       <r>    7.3734    0.0000 </r>
       <r>    7.3734    0.0000 </r>
       <r>    7.3735    0.0000 </r>
       <r>    7.5985    0.0000 </r>
       <r>    7.5995    0.0000 </r>
       <r>    7.5998    0.0000 </r>
       <r>    7.6005    0.0000 </r>
       <r>    7.6035    0.0000 </r>
       <r>    7.6039    0.0000 </r>
       <r>    7.6039    0.0000 </r>
       <r>    7.6046    0.0000 </r>
       <r>    7.7115    0.0000 </r>
       <r>    7.7116    0.0000 </r>
       <r>    7.7116    0.0000 </r>
       <r>    7.7118    0.0000 </r>
       <r>    7.7485    0.0000 </r>
       <r>    7.7490    0.0000 </r>
       <r>    7.7491    0.0000 </r>
       <r>    7.7495    0.0000 </r>
       <r>    7.8287    0.0000 </r>
       <r>    7.8291    0.0000 </r>
       <r>    7.9116    0.0000 </r>
       <r>    7.9125    0.0000 </r>
       <r>    7.9128    0.0000 </r>
       <r>    7.9137    0.0000 </r>
       <r>    8.0691    0.0000 </r>
       <r>    8.0696    0.0000 </r>
       <r>    8.0696    0.0000 </r>
       <r>    8.0701    0.0000 </r>
       <r>    8.4087    0.0000 </r>
       <r>    8.4092    0.0000 </r>
       <r>    8.4092    0.0000 </r>
       <r>    8.4097    0.0000 </r>
      </set>
      <set comment="kpoint 3">
       <r>   -8.8167    1.0000 </r>
       <r>   -8.7211    1.0000 </r>
       <r>   -8.5753    1.0000 </r>
       <r>   -8.5739    1.0000 </r>
       <r>   -8.5738    1.0000 </r>
       <r>   -8.5725    1.0000 </r>
       <r>   -8.5281    1.0000 </r>
       <r>   -8.5268    1.0000 </r>
       <r>   -8.5267    1.0000 </r>
       <r>   -8.5254    1.0000 </r>
       <r>   -8.4656    1.0000 </r>
       <r>   -8.4646    1.0000 </r>
       <r>   -8.4637    1.0000 </r>
       <r>   -8.4627    1.0000 </r>
       <r>   -8.4626    1.0000 </r>
       <r>   -8.4624    1.0000 </r>
       <r>   -8.4623    1.0000 </r>
       <r>   -8.4606    1.0000 </r>
       <r>   -8.4604    1.0000 </r>
       <r>   -8.4042    1.0000 </r>
       <r>   -8.4029    1.0000 </r>
       <r>   -8.4029    1.0000 </r>
       <r>   -8.4016    1.0000 </r>
       <r>   -8.3744    1.0000 </r>
       <r>   -8.3608    1.0000 </r>
       <r>   -8.3596    1.0000 </r>
       <r>   -8.3595    1.0000 </r>
       <r>   -8.3583    1.0000 </r>
       <r>   -8.3435    1.0000 </r>
       <r>   -8.3434    1.0000 </r>
       <r>   -8.3427    1.0000 </r>
       <r>   -8.3425    1.0000 </r>
       <r>   -5.9595    1.0000 </r>
       <r>   -5.9595    1.0000 </r>
       <r>   -5.9495    1.0000 </r>
       <r>   -5.9324    1.0000 </r>
       <r>   -5.9324    1.0000 </r>
       <r>   -5.9064    1.0000 </r>
       <r>   -5.9060    1.0000 </r>
       <r>   -5.9059    1.0000 </r>
       <r>   -5.9058    1.0000 </r>
       <r>   -5.9041    1.0000 </r>
       <r>   -5.9038    1.0000 </r>
       <r>   -5.9037    1.0000 </r>
       <r>   -5.9037    1.0000 </r>
       <r>   -5.9036    1.0000 </r>
       <r>   -5.9036    1.0000 </r>
       <r>   -5.9035    1.0000 </r>
       <r>   -5.9034    1.0000 </r>
       <r>   -5.9033    1.0000 </r>
       <r>   -5.9032    1.0000 </r>
       <r>   -5.9031    1.0000 </r>
       <r>   -5.9027    1.0000 </r>
       <r>   -5.8959    1.0000 </r>
       <r>   -5.8958    1.0000 </r>
       <r>   -5.8957    1.0000 </r>
       <r>   -5.8956    1.0000 </r>
       <r>   -5.8951    1.0000 </r>
       <r>   -5.8950    1.0000 </r>
       <r>   -5.8949    1.0000 </r>
       <r>   -5.8948    1.0000 </r>
       <r>   -5.8947    1.0000 </r>
       <r>   -5.8946    1.0000 </r>
       <r>   -5.8946    1.0000 </r>
       <r>   -5.8945    1.0000 </r>
       <r>   -5.8944    1.0000 </r>
       <r>   -5.8943    1.0000 </r>
       <r>   -5.8942    1.0000 </r>
       <r>   -5.8939    1.0000 </r>
       <r>   -5.8872    1.0000 </r>
       <r>   -5.8767    1.0000 </r>
       <r>   -5.8766    1.0000 </r>
       <r>   -5.8766    1.0000 </r>
       <r>   -5.8765    1.0000 </r>
       <r>   -5.8671    1.0000 </r>
       <r>   -5.8669    1.0000 </r>
       <r>   -5.8669    1.0000 </r>
       <r>   -5.8667    1.0000 </r>
       <r>   -5.8596    1.0000 </r>
       <r>   -5.8596    1.0000 </r>
       <r>   -5.8595    1.0000 </r>
       <r>   -5.8595    1.0000 </r>
       <r>   -5.8527    1.0000 </r>
       <r>   -5.8527    1.0000 </r>
       <r>   -5.8479    1.0000 </r>
       <r>   -5.8479    1.0000 </r>
       <r>   -5.8478    1.0000 </r>
       <r>   -5.8477    1.0000 </r>
       <r>   -5.8405    1.0000 </r>
       <r>   -5.8405    1.0000 </r>
       <r>   -5.8398    1.0000 </r>
       <r>   -5.8398    1.0000 </r>
       <r>   -5.8304    1.0000 </r>
       <r>   -5.8304    1.0000 </r>
       <r>   -5.8213    1.0000 </r>
       <r>   -5.8213    1.0000 </r>
       <r>   -5.8201    1.0000 </r>
       <r>   -5.8200    1.0000 </r>
       <r>   -5.8114    1.0000 </r>
       <r>   -5.8018    1.0000 </r>
       <r>   -5.7878    1.0000 </r>
       <r>   -5.7878    1.0000 </r>
       <r>   -5.7825    1.0000 </r>
       <r>   -5.7824    1.0000 </r>
       <r>   -5.7823    1.0000 </r>
       <r>   -5.7822    1.0000 </r>
       <r>   -5.7603    1.0000 </r>
       <r>   -5.7603    1.0000 </r>
       <r>   -5.7429    1.0000 </r>
       <r>   -5.7428    1.0000 </r>
       <r>   -5.7428    1.0000 </r>
       <r>   -5.7427    1.0000 </r>
       <r>   -5.7409    1.0000 </r>
       <r>   -5.7407    1.0000 </r>
       <r>   -5.7407    1.0000 </r>
       <r>   -5.7406    1.0000 </r>
       <r>   -5.7334    1.0000 </r>
       <r>   -5.7332    1.0000 </r>
       <r>   -5.7332    1.0000 </r>
       <r>   -5.7330    1.0000 </r>
       <r>   -5.7215    1.0000 </r>
       <r>   -5.7174    1.0000 </r>
       <r>   -5.7173    1.0000 </r>
       <r>   -5.7173    1.0000 </r>
       <r>   -5.7173    1.0000 </r>
       <r>   -5.7169    1.0000 </r>
       <r>   -5.7161    1.0000 </r>
       <r>   -5.7160    1.0000 </r>
       <r>   -5.7160    1.0000 </r>
       <r>   -5.7160    1.0000 </r>
       <r>   -5.7131    1.0000 </r>
       <r>   -5.7131    1.0000 </r>
       <r>   -5.7130    1.0000 </r>
       <r>   -5.7128    1.0000 </r>
       <r>   -5.7127    1.0000 </r>
       <r>   -5.7125    1.0000 </r>
       <r>   -5.7124    1.0000 </r>
       <r>   -5.7124    1.0000 </r>
       <r>   -5.7115    1.0000 </r>
       <r>   -5.7096    1.0000 </r>
       <r>   -5.7095    1.0000 </r>
       <r>   -5.7092    1.0000 </r>
       <r>   -5.7092    1.0000 </r>
       <r>   -5.7090    1.0000 </r>
       <r>   -5.7089    1.0000 </r>
       <r>   -5.7089    1.0000 </r>
       <r>   -5.7089    1.0000 </r>
       <r>   -5.7083    1.0000 </r>
       <r>   -5.7083    1.0000 </r>
       <r>   -5.7081    1.0000 </r>
       <r>   -5.7081    1.0000 </r>
       <r>   -5.7059    1.0000 </r>
       <r>   -5.7014    1.0000 </r>
       <r>   -5.7014    1.0000 </r>
       <r>   -5.7011    1.0000 </r>
       <r>   -5.7009    1.0000 </r>
       <r>   -5.7007    1.0000 </r>
       <r>   -5.7007    1.0000 </r>
       <r>   -5.6912    1.0000 </r>
       <r>   -5.6881    1.0000 </r>
       <r>   -5.6880    1.0000 </r>
       <r>   -5.6857    1.0000 </r>
       <r>   -5.6621    1.0000 </r>
       <r>   -5.6619    1.0000 </r>
       <r>   -5.6619    1.0000 </r>
       <r>   -5.6617    1.0000 </r>
       <r>   -5.5784    1.0000 </r>
       <r>   -5.5783    1.0000 </r>
       <r>   -5.5782    1.0000 </r>
       <r>   -5.5781    1.0000 </r>
       <r>   -5.5228    1.0000 </r>
       <r>   -5.4254    1.0000 </r>
       <r>   -5.4253    1.0000 </r>
       <r>   -5.4252    1.0000 </r>
       <r>   -5.4251    1.0000 </r>
       <r>   -5.3880    1.0000 </r>
       <r>   -5.3879    1.0000 </r>
       <r>   -5.3877    1.0000 </r>
       <r>   -5.3877    1.0000 </r>
       <r>   -5.3254    1.0000 </r>
       <r>   -5.2989    1.0000 </r>
       <r>   -5.2988    1.0000 </r>
       <r>   -5.2988    1.0000 </r>
       <r>   -5.2988    1.0000 </r>
       <r>   -5.2107    1.0000 </r>
       <r>   -5.2107    1.0000 </r>
       <r>   -5.1911    1.0000 </r>
       <r>   -5.1910    1.0000 </r>
       <r>   -5.1910    1.0000 </r>
       <r>   -5.1909    1.0000 </r>
       <r>   -5.1711    1.0000 </r>
       <r>   -5.1711    1.0000 </r>
       <r>   -1.9686    1.0000 </r>
       <r>   -1.9678    1.0000 </r>
       <r>   -1.9674    1.0000 </r>
       <r>   -1.9669    1.0000 </r>
       <r>   -1.9636    1.0000 </r>
       <r>   -1.9634    1.0000 </r>
       <r>   -1.9028    1.0000 </r>
       <r>   -1.9028    1.0000 </r>
       <r>   -1.8300    1.0000 </r>
[...]
      </set>
     </set>
    </set>
   </array>
  </eigenvalues>
  <separator name="orbital magnetization" >
   <v name="MAGDIPOLOUT">      0.00000000      0.00000000      0.00000000</v>
  </separator>
  <dos>
   <i name="efermi">      2.50466095 </i>
   <total>
    <array>
     <dimension dim="1">gridpoints</dimension>
     <dimension dim="2">spin</dimension>
     <field>energy</field>
     <field>total</field>
     <field>integrated</field>
     <set>
      <set comment="spin 1">
       <r>    -9.7147     0.0000     0.0000 </r>
       <r>    -9.6514     0.0000     0.0000 </r>
       <r>    -9.5881     0.0000     0.0000 </r>
       <r>    -9.5248     0.0000     0.0000 </r>
       <r>    -9.4615     0.0000     0.0000 </r>
       <r>    -9.3982     0.0000     0.0000 </r>
       <r>    -9.3349     0.0000     0.0000 </r>
       <r>    -9.2717     0.0000     0.0000 </r>
       <r>    -9.2084     0.0000     0.0000 </r>
       <r>    -9.1451     0.0000     0.0000 </r>
       <r>    -9.0818     0.0000     0.0000 </r>
       <r>    -9.0185     0.0000     0.0000 </r>
       <r>    -8.9552     0.0023     0.0001 </r>
       <r>    -8.8919     0.2800     0.0179 </r>
       <r>    -8.8286     4.7853     0.3207 </r>
       <r>    -8.7653    17.3785     1.4207 </r>
       <r>    -8.7020    30.5060     3.3515 </r>
       <r>    -8.6387    46.4466     6.2912 </r>
       <r>    -8.5754    66.2083    10.4816 </r>
       <r>    -8.5122   108.7605    17.3653 </r>
       <r>    -8.4489   187.2026    29.2138 </r>
       <r>    -8.3856   283.9675    47.1868 </r>
       <r>    -8.3223   224.4752    61.3943 </r>
       <r>    -8.2590    40.3976    63.9512 </r>
       <r>    -8.1957     0.7705    63.9999 </r>
       <r>    -8.1324     0.0010    64.0000 </r>
       <r>    -8.0691     0.0000    64.0000 </r>
       <r>    -8.0058     0.0000    64.0000 </r>
       <r>    -7.9425     0.0000    64.0000 </r>
       <r>    -7.8792     0.0000    64.0000 </r>
       <r>    -7.8159     0.0000    64.0000 </r>
       <r>    -7.7526     0.0000    64.0000 </r>
       <r>    -7.6894     0.0000    64.0000 </r>
       <r>    -7.6261     0.0000    64.0000 </r>
       <r>    -7.5628     0.0000    64.0000 </r>
       <r>    -7.4995     0.0000    64.0000 </r>
       <r>    -7.4362     0.0000    64.0000 </r>
       <r>    -7.3729     0.0000    64.0000 </r>
       <r>    -7.3096     0.0000    64.0000 </r>
       <r>    -7.2463     0.0000    64.0000 </r>
       <r>    -7.1830     0.0000    64.0000 </r>
       <r>    -7.1197     0.0000    64.0000 </r>
       <r>    -7.0564     0.0000    64.0000 </r>
       <r>    -6.9931     0.0000    64.0000 </r>
       <r>    -6.9298     0.0000    64.0000 </r>
       <r>    -6.8666     0.0000    64.0000 </r>
       <r>    -6.8033     0.0000    64.0000 </r>
       <r>    -6.7400     0.0000    64.0000 </r>
       <r>    -6.6767     0.0000    64.0000 </r>
       <r>    -6.6134     0.0000    64.0000 </r>
       <r>    -6.5501     0.0000    64.0000 </r>
       <r>    -6.4868     0.0000    64.0000 </r>
       <r>    -6.4235     0.0000    64.0000 </r>
       <r>    -6.3602     0.0000    64.0000 </r>
       <r>    -6.2969     0.0000    64.0000 </r>
       <r>    -6.2336     0.0000    64.0000 </r>
       <r>    -6.1703     0.0000    64.0000 </r>
       <r>    -6.1070     0.0009    64.0001 </r>
       <r>    -6.0438     0.6492    64.0411 </r>
       <r>    -5.9805    42.3160    66.7194 </r>
       <r>    -5.9172   434.8994    94.2452 </r>
       <r>    -5.8539  1027.4267   159.2734 </r>
       <r>    -5.7906   708.9486   204.1443 </r>
       <r>    -5.7273   839.8097   257.2978 </r>
       <r>    -5.6640   984.8933   319.6339 </r>
       <r>    -5.6007   215.9956   333.3048 </r>
       <r>    -5.5374    67.1831   337.5570 </r>
       <r>    -5.4741    70.7386   342.0342 </r>
       <r>    -5.4108    94.9171   348.0417 </r>
       <r>    -5.3475   117.5632   355.4825 </r>
       <r>    -5.2842   143.1635   364.5437 </r>
       <r>    -5.2210   163.0800   374.8654 </r>
       <r>    -5.1577   117.5065   382.3026 </r>
       <r>    -5.0944    25.8923   383.9414 </r>
       <r>    -5.0311     0.9224   383.9998 </r>
       <r>    -4.9678     0.0033   384.0000 </r>
       <r>    -4.9045     0.0000   384.0000 </r>
       <r>    -4.8412     0.0000   384.0000 </r>
       <r>    -4.7779     0.0000   384.0000 </r>
       <r>    -4.7146     0.0000   384.0000 </r>
       <r>    -4.6513     0.0000   384.0000 </r>
       <r>    -4.5880     0.0000   384.0000 </r>
       <r>    -4.5247     0.0000   384.0000 </r>
       <r>    -4.4614     0.0000   384.0000 </r>
       <r>    -4.3982     0.0000   384.0000 </r>
       <r>    -4.3349     0.0000   384.0000 </r>
       <r>    -4.2716     0.0000   384.0000 </r>
       <r>    -4.2083     0.0000   384.0000 </r>
       <r>    -4.1450     0.0000   384.0000 </r>
       <r>    -4.0817     0.0000   384.0000 </r>
       <r>    -4.0184     0.0000   384.0000 </r>
       <r>    -3.9551     0.0000   384.0000 </r>
       <r>    -3.8918     0.0000   384.0000 </r>
       <r>    -3.8285     0.0000   384.0000 </r>
       <r>    -3.7652     0.0000   384.0000 </r>
       <r>    -3.7019     0.0000   384.0000 </r>
       <r>    -3.6386     0.0000   384.0000 </r>
       <r>    -3.5754     0.0000   384.0000 </r>
       <r>    -3.5121     0.0000   384.0000 </r>
       <r>    -3.4488     0.0000   384.0000 </r>
       <r>    -3.3855     0.0000   384.0000 </r>
       <r>    -3.3222     0.0000   384.0000 </r>
       <r>    -3.2589     0.0000   384.0000 </r>
       <r>    -3.1956     0.0000   384.0000 </r>
       <r>    -3.1323     0.0000   384.0000 </r>
       <r>    -3.0690     0.0000   384.0000 </r>
       <r>    -3.0057     0.0000   384.0000 </r>
       <r>    -2.9424     0.0000   384.0000 </r>
       <r>    -2.8791     0.0000   384.0000 </r>
       <r>    -2.8158     0.0000   384.0000 </r>
       <r>    -2.7526     0.0000   384.0000 </r>
       <r>    -2.6893     0.0000   384.0000 </r>
       <r>    -2.6260     0.0000   384.0000 </r>
       <r>    -2.5627     0.0000   384.0000 </r>
       <r>    -2.4994     0.0000   384.0000 </r>
       <r>    -2.4361     0.0000   384.0000 </r>
       <r>    -2.3728     0.0000   384.0000 </r>
       <r>    -2.3095     0.0000   384.0000 </r>
       <r>    -2.2462     0.0001   384.0000 </r>
       <r>    -2.1829     0.0528   384.0034 </r>
       <r>    -2.1196     1.4274   384.0937 </r>
       <r>    -2.0563     5.2912   384.4286 </r>
       <r>    -1.9930    28.3293   386.2216 </r>
       <r>    -1.9298    59.9254   390.0144 </r>
       <r>    -1.8665   110.7169   397.0219 </r>
       <r>    -1.8032   162.7255   407.3212 </r>
       <r>    -1.7399    93.7928   413.2576 </r>
       <r>    -1.6766    53.4640   416.6414 </r>
       <r>    -1.6133    72.7106   421.2434 </r>
       <r>    -1.5500    23.4457   422.7274 </r>
       <r>    -1.4867    10.6837   423.4036 </r>
       <r>    -1.4234    23.4644   424.8887 </r>
       <r>    -1.3601    28.4683   426.6905 </r>
       <r>    -1.2968    24.9217   428.2679 </r>
       <r>    -1.2335    59.3243   432.0226 </r>
       <r>    -1.1702    20.5762   433.3249 </r>
       <r>    -1.1070     3.4687   433.5445 </r>
       <r>    -1.0437     3.5550   433.7695 </r>
       <r>    -0.9804    17.1628   434.8558 </r>
       <r>    -0.9171     7.4329   435.3262 </r>
       <r>    -0.8538     5.6153   435.6816 </r>
       <r>    -0.7905    20.0947   436.9534 </r>
       <r>    -0.7272    21.1430   438.2916 </r>
       <r>    -0.6639     9.3631   438.8842 </r>
       <r>    -0.6006     8.5691   439.4266 </r>
       <r>    -0.5373    16.7468   440.4865 </r>
       <r>    -0.4740     3.6861   440.7198 </r>
       <r>    -0.4107     8.4906   441.2572 </r>
       <r>    -0.3474    10.7831   441.9397 </r>
       <r>    -0.2842    10.3716   442.5962 </r>
       <r>    -0.2209    18.3467   443.7574 </r>
       <r>    -0.1576    49.6327   446.8987 </r>
       <r>    -0.0943    50.8384   450.1164 </r>
       <r>    -0.0310    58.0356   453.7896 </r>
       <r>     0.0323    67.4396   458.0580 </r>
       <r>     0.0956    39.4354   460.5540 </r>
       <r>     0.1589    61.9103   464.4724 </r>
       <r>     0.2222    88.7568   470.0901 </r>
       <r>     0.2855    33.6515   472.2199 </r>
       <r>     0.3488    24.6238   473.7784 </r>
       <r>     0.4121    59.3036   477.5319 </r>
       <r>     0.4754    62.0971   481.4622 </r>
       <r>     0.5386    86.1578   486.9153 </r>
       <r>     0.6019    98.0270   493.1196 </r>
       <r>     0.6652    89.0843   498.7580 </r>
       <r>     0.7285    87.1919   504.2765 </r>
       <r>     0.7918    52.9720   507.6293 </r>
       <r>     0.8551    30.4046   509.5536 </r>
       <r>     0.9184    63.6309   513.5810 </r>
       <r>     0.9817    63.9265   517.6270 </r>
       <r>     1.0450    99.5244   523.9262 </r>
       <r>     1.1083    85.7191   529.3515 </r>
       <r>     1.1716    77.1848   534.2367 </r>
       <r>     1.2349    62.1117   538.1679 </r>
       <r>     1.2982    43.6571   540.9311 </r>
       <r>     1.3614    62.5780   544.8918 </r>
       <r>     1.4247    51.1933   548.1319 </r>
       <r>     1.4880    69.8186   552.5509 </r>
       <r>     1.5513   110.7514   559.5606 </r>
       <r>     1.6146    35.4678   561.8054 </r>
       <r>     1.6779    22.1556   563.2077 </r>
       <r>     1.7412    37.8585   565.6039 </r>
       <r>     1.8045    23.8856   567.1156 </r>
       <r>     1.8678    28.3492   568.9099 </r>
       <r>     1.9311    43.8817   571.6873 </r>
       <r>     1.9944    17.3893   572.7879 </r>
       <r>     2.0577    10.9036   573.4780 </r>
       <r>     2.1210    17.0643   574.5580 </r>
       <r>     2.1842     9.0589   575.1314 </r>
       <r>     2.2475     9.2160   575.7147 </r>
       <r>     2.3108     3.7363   575.9512 </r>
       <r>     2.3741     0.7539   575.9989 </r>
       <r>     2.4374     0.0173   576.0000 </r>
       <r>     2.5007     0.0000   576.0000 </r>
       <r>     2.5640     0.0000   576.0000 </r>
       <r>     2.6273     0.0000   576.0000 </r>
       <r>     2.6906     0.0000   576.0000 </r>
       <r>     2.7539     0.0000   576.0000 </r>
       <r>     2.8172     0.0000   576.0000 </r>
       <r>     2.8805     0.0000   576.0000 </r>
       <r>     2.9438     0.0093   576.0006 </r>
       <r>     3.0070     0.3036   576.0198 </r>
       <r>     3.0703     0.7157   576.0651 </r>
       <r>     3.1336     0.1399   576.0740 </r>
       <r>     3.1969     0.0018   576.0741 </r>
       <r>     3.2602     0.0000   576.0741 </r>
       <r>     3.3235     0.0000   576.0741 </r>
       <r>     3.3868     0.0000   576.0741 </r>
       <r>     3.4501     0.0000   576.0741 </r>
       <r>     3.5134     0.0000   576.0741 </r>
       <r>     3.5767     0.0000   576.0741 </r>
       <r>     3.6400     0.0000   576.0741 </r>
       <r>     3.7033     0.0130   576.0749 </r>
       <r>     3.7666     0.9230   576.1333 </r>
       <r>     3.8298     4.3411   576.4081 </r>
       <r>     3.8931     1.6974   576.5155 </r>
       <r>     3.9564     0.0565   576.5191 </r>
       <r>     4.0197     1.1620   576.5926 </r>
       <r>     4.0830    10.8959   577.2823 </r>
       <r>     4.1463    13.7596   578.1531 </r>
       <r>     4.2096     7.8383   578.6492 </r>
       <r>     4.2729     3.5975   578.8769 </r>
       <r>     4.3362     0.1998   578.8896 </r>
       <r>     4.3995     1.7628   579.0012 </r>
       <r>     4.4628    20.0504   580.2702 </r>
       <r>     4.5261    34.3069   582.4415 </r>
       <r>     4.5894    39.0717   584.9145 </r>
       <r>     4.6526    16.5969   585.9649 </r>
       <r>     4.7159     5.2900   586.2998 </r>
       <r>     4.7792    21.7464   587.6761 </r>
       <r>     4.8425     9.7139   588.2910 </r>
       <r>     4.9058    16.0991   589.3099 </r>
       <r>     4.9691    41.1226   591.9126 </r>
       <r>     5.0324    60.6272   595.7499 </r>
       <r>     5.0957    64.0618   599.8045 </r>
       <r>     5.1590    58.7895   603.5254 </r>
       <r>     5.2223    47.2809   606.5179 </r>
       <r>     5.2856    62.5061   610.4741 </r>
       <r>     5.3489    71.7702   615.0166 </r>
       <r>     5.4121    84.1896   620.3451 </r>
       <r>     5.4754   127.4002   628.4086 </r>
       <r>     5.5387    74.5214   633.1252 </r>
       <r>     5.6020    10.0943   633.7641 </r>
       <r>     5.6653    28.1112   635.5433 </r>
       <r>     5.7286    29.1696   637.3895 </r>
       <r>     5.7919     7.5950   637.8702 </r>
       <r>     5.8552    20.1314   639.1444 </r>
       <r>     5.9185    33.4437   641.2611 </r>
       <r>     5.9818    68.7291   645.6112 </r>
       <r>     6.0451    46.3964   648.5477 </r>
       <r>     6.1084    18.3846   649.7113 </r>
       <r>     6.1717    43.4118   652.4589 </r>
       <r>     6.2349    34.9496   654.6710 </r>
       <r>     6.2982    12.9046   655.4877 </r>
       <r>     6.3615    35.4767   657.7331 </r>
       <r>     6.4248    20.1408   659.0079 </r>
       <r>     6.4881    18.5237   660.1803 </r>
       <r>     6.5514     8.6745   660.7293 </r>
       <r>     6.6147     5.3309   661.0667 </r>
       <r>     6.6780     8.4925   661.6042 </r>
       <r>     6.7413    46.2305   664.5303 </r>
       <r>     6.8046   104.4275   671.1397 </r>
       <r>     6.8679    52.3496   674.4531 </r>
       <r>     6.9312    27.3291   676.1828 </r>
       <r>     6.9945    92.8211   682.0576 </r>
       <r>     7.0577   104.0623   688.6440 </r>
       <r>     7.1210    32.5046   690.7013 </r>
       <r>     7.1843    47.1086   693.6829 </r>
       <r>     7.2476    62.7566   697.6549 </r>
       <r>     7.3109    35.5848   699.9071 </r>
       <r>     7.3742    60.1531   703.7143 </r>
       <r>     7.4375    58.0624   707.3893 </r>
       <r>     7.5008    45.5114   710.2698 </r>
       <r>     7.5641    31.4395   712.2596 </r>
       <r>     7.6274    59.7613   716.0421 </r>
       <r>     7.6907    56.2720   719.6037 </r>
       <r>     7.7540    85.9091   725.0410 </r>
       <r>     7.8173    73.6229   729.7008 </r>
       <r>     7.8805    75.1664   734.4583 </r>
       <r>     7.9438   105.9707   741.1654 </r>
       <r>     8.0071    76.3653   745.9987 </r>
       <r>     8.0704    49.4229   749.1268 </r>
       <r>     8.1337    35.9082   751.3995 </r>
       <r>     8.1970    64.3837   755.4745 </r>
       <r>     8.2603    46.3275   758.4067 </r>
       <r>     8.3236    61.5098   762.2998 </r>
       <r>     8.3869    56.2866   765.8623 </r>
       <r>     8.4502    29.5662   767.7336 </r>
       <r>     8.5135     4.1609   767.9969 </r>
       <r>     8.5768     0.0483   768.0000 </r>
       <r>     8.6401     0.0000   768.0000 </r>
       <r>     8.7033     0.0000   768.0000 </r>
       <r>     8.7666     0.0000   768.0000 </r>
       <r>     8.8299     0.0000   768.0000 </r>
       <r>     8.8932     0.0000   768.0000 </r>
       <r>     8.9565     0.0000   768.0000 </r>
       <r>     9.0198     0.0000   768.0000 </r>
       <r>     9.0831     0.0000   768.0000 </r>
       <r>     9.1464     0.0000   768.0000 </r>
       <r>     9.2097     0.0000   768.0000 </r>
       <r>     9.2730     0.0000   768.0000 </r>
      </set>
     </set>
    </array>
   </total>
  </dos>
 </calculation>
 <structure name="finalpos" >
  <crystal>
   <varray name="basis" >
    <v>      12.99297215       0.00000000       0.00000000 </v>
    <v>       0.00000000      12.99297215       0.00000000 </v>
    <v>       0.00000000       0.00000000      12.99297215 </v>
   </varray>
   <i name="volume">   2193.43880629 </i>
   <varray name="rec_basis" >
    <v>       0.07696468       0.00000000       0.00000000 </v>
    <v>       0.00000000       0.07696468       0.00000000 </v>
    <v>       0.00000000       0.00000000       0.07696468 </v>
   </varray>
  </crystal>
  <varray name="positions" >
   <v>       0.00076965       0.00000000       0.00000000 </v>
   <v>       0.50000000       0.00000000       0.00000000 </v>
   <v>       0.00000000       0.50000000       0.00000000 </v>
   <v>       0.50000000       0.50000000       0.00000000 </v>
   <v>       0.00000000       0.00000000       0.50000000 </v>
   <v>       0.50000000       0.00000000       0.50000000 </v>
   <v>       0.00000000       0.50000000       0.50000000 </v>
   <v>       0.50000000       0.50000000       0.50000000 </v>
   <v>       0.00000000       0.25000000       0.25000000 </v>
   <v>       0.50000000       0.25000000       0.25000000 </v>
   <v>       0.00000000       0.75000000       0.25000000 </v>
   <v>       0.50000000       0.75000000       0.25000000 </v>
   <v>       0.00000000       0.25000000       0.75000000 </v>
   <v>       0.50000000       0.25000000       0.75000000 </v>
   <v>       0.00000000       0.75000000       0.75000000 </v>
   <v>       0.50000000       0.75000000       0.75000000 </v>
   <v>       0.25000000       0.00000000       0.25000000 </v>
   <v>       0.75000000       0.00000000       0.25000000 </v>
   <v>       0.25000000       0.50000000       0.25000000 </v>
   <v>       0.75000000       0.50000000       0.25000000 </v>
   <v>       0.25000000       0.00000000       0.75000000 </v>
   <v>       0.75000000       0.00000000       0.75000000 </v>
   <v>       0.25000000       0.50000000       0.75000000 </v>
   <v>       0.75000000       0.50000000       0.75000000 </v>
   <v>       0.25000000       0.25000000       0.00000000 </v>
   <v>       0.75000000       0.25000000       0.00000000 </v>
   <v>       0.25000000       0.75000000       0.00000000 </v>
   <v>       0.75000000       0.75000000       0.00000000 </v>
   <v>       0.25000000       0.25000000       0.50000000 </v>
   <v>       0.75000000       0.25000000       0.50000000 </v>
   <v>       0.25000000       0.75000000       0.50000000 </v>
   <v>       0.75000000       0.75000000       0.50000000 </v>
   <v>       0.12500000       0.12500000       0.12500000 </v>
   <v>       0.62500000       0.12500000       0.12500000 </v>
   <v>       0.12500000       0.62500000       0.12500000 </v>
   <v>       0.62500000       0.62500000       0.12500000 </v>
   <v>       0.12500000       0.12500000       0.62500000 </v>
   <v>       0.62500000       0.12500000       0.62500000 </v>
   <v>       0.12500000       0.62500000       0.62500000 </v>
   <v>       0.62500000       0.62500000       0.62500000 </v>
   <v>       0.12500000       0.37500000       0.37500000 </v>
   <v>       0.62500000       0.37500000       0.37500000 </v>
   <v>       0.12500000       0.87500000       0.37500000 </v>
   <v>       0.62500000       0.87500000       0.37500000 </v>
   <v>       0.12500000       0.37500000       0.87500000 </v>
   <v>       0.62500000       0.37500000       0.87500000 </v>
   <v>       0.12500000       0.87500000       0.87500000 </v>
   <v>       0.62500000       0.87500000       0.87500000 </v>
   <v>       0.37500000       0.12500000       0.37500000 </v>
   <v>       0.87500000       0.12500000       0.37500000 </v>
   <v>       0.37500000       0.62500000       0.37500000 </v>
   <v>       0.87500000       0.62500000       0.37500000 </v>
   <v>       0.37500000       0.12500000       0.87500000 </v>
   <v>       0.87500000       0.12500000       0.87500000 </v>
   <v>       0.37500000       0.62500000       0.87500000 </v>
   <v>       0.87500000       0.62500000       0.87500000 </v>
   <v>       0.37500000       0.37500000       0.12500000 </v>
   <v>       0.87500000       0.37500000       0.12500000 </v>
   <v>       0.37500000       0.87500000       0.12500000 </v>
   <v>       0.87500000       0.87500000       0.12500000 </v>
   <v>       0.37500000       0.37500000       0.62500000 </v>
   <v>       0.87500000       0.37500000       0.62500000 </v>
   <v>       0.37500000       0.87500000       0.62500000 </v>
   <v>       0.87500000       0.87500000       0.62500000 </v>
  </varray>
 </structure>
</modeling>
