<?xml version="1.0" encoding="ISO-8859-1"?>
<modeling>
 <generator>
  <i name="program" type="string">vasp </i>
  <i name="version" type="string">6.3.0  </i>
  <i name="subversion" type="string">20Jan22 (build Feb 10 2022 15:15:41) complex                          parallel </i>
  <i name="platform" type="string">LinuxIFC </i>
  <i name="date" type="string">2023 10 05 </i>
  <i name="time" type="string">11:14:57 </i>
 </generator>
 <incar>
  <i name="EDIFF">      0.00010000</i>
  <i name="ENCUT">    360.00000000</i>
  <i type="int" name="ISMEAR">     0</i>
  <i name="SIGMA">      0.05000000</i>
 </incar>
 <primitive_cell>
  <structure name="primitive_cell" >
   <crystal>
    <varray name="basis" >
     <v>      13.12555350       0.00000000       0.00000000 </v>
     <v>       0.00000000      13.12555350       0.00000000 </v>
     <v>       0.00000000       0.00000000      13.12555350 </v>
    </varray>
    <i name="volume">   2261.27238683 </i>
    <varray name="rec_basis" >
     <v>       0.07618726       0.00000000       0.00000000 </v>
     <v>       0.00000000       0.07618726       0.00000000 </v>
     <v>       0.00000000       0.00000000       0.07618726 </v>
    </varray>
   </crystal>
   <varray name="positions" >
    <v>       0.00000000       0.00000000       0.00000000 </v>
    <v>       0.50000000       0.00000000       0.00000000 </v>
    <v>       0.00000000       0.50000000       0.00000000 </v>
    <v>       0.50000000       0.50000000       0.00000000 </v>
    <v>       0.00000000       0.00000000       0.50000000 </v>
    <v>       0.50000000       0.00000000       0.50000000 </v>
    <v>       0.00000000       0.50000000       0.50000000 </v>
    <v>       0.50000000       0.50000000       0.50000000 </v>
    <v>       0.00000000       0.25000000       0.25000000 </v>
    <v>       0.50000000       0.25000000       0.25000000 </v>
    <v>       0.00000000       0.75000000       0.25000000 </v>
    <v>       0.50000000       0.75000000       0.25000000 </v>
    <v>       0.00000000       0.25000000       0.75000000 </v>
    <v>       0.50000000       0.25000000       0.75000000 </v>
    <v>       0.00000000       0.75000000       0.75000000 </v>
    <v>       0.50000000       0.75000000       0.75000000 </v>
    <v>       0.25000000       0.00000000       0.25000000 </v>
    <v>       0.75000000       0.00000000       0.25000000 </v>
    <v>       0.25000000       0.50000000       0.25000000 </v>
    <v>       0.75000000       0.50000000       0.25000000 </v>
    <v>       0.25000000       0.00000000       0.75000000 </v>
    <v>       0.75000000       0.00000000       0.75000000 </v>
    <v>       0.25000000       0.50000000       0.75000000 </v>
    <v>       0.75000000       0.50000000       0.75000000 </v>
    <v>       0.25000000       0.25000000       0.00000000 </v>
    <v>       0.75000000       0.25000000       0.00000000 </v>
    <v>       0.25000000       0.75000000       0.00000000 </v>
    <v>       0.75000000       0.75000000       0.00000000 </v>
    <v>       0.25000000       0.25000000       0.50000000 </v>
    <v>       0.75000000       0.25000000       0.50000000 </v>
    <v>       0.25000000       0.75000000       0.50000000 </v>
    <v>       0.75000000       0.75000000       0.50000000 </v>
    <v>       0.12576187       0.12500000       0.12500000 </v>
    <v>       0.62500000       0.12500000       0.12500000 </v>
    <v>       0.12500000       0.62500000       0.12500000 </v>
    <v>       0.62500000       0.62500000       0.12500000 </v>
    <v>       0.12500000       0.12500000       0.62500000 </v>
    <v>       0.62500000       0.12500000       0.62500000 </v>
    <v>       0.12500000       0.62500000       0.62500000 </v>
    <v>       0.62500000       0.62500000       0.62500000 </v>
    <v>       0.12500000       0.37500000       0.37500000 </v>
    <v>       0.62500000       0.37500000       0.37500000 </v>
    <v>       0.12500000       0.87500000       0.37500000 </v>
    <v>       0.62500000       0.87500000       0.37500000 </v>
    <v>       0.12500000       0.37500000       0.87500000 </v>
    <v>       0.62500000       0.37500000       0.87500000 </v>
    <v>       0.12500000       0.87500000       0.87500000 </v>
    <v>       0.62500000       0.87500000       0.87500000 </v>
    <v>       0.37500000       0.12500000       0.37500000 </v>
    <v>       0.87500000       0.12500000       0.37500000 </v>
    <v>       0.37500000       0.62500000       0.37500000 </v>
    <v>       0.87500000       0.62500000       0.37500000 </v>
    <v>       0.37500000       0.12500000       0.87500000 </v>
    <v>       0.87500000       0.12500000       0.87500000 </v>
    <v>       0.37500000       0.62500000       0.87500000 </v>
    <v>       0.87500000       0.62500000       0.87500000 </v>
    <v>       0.37500000       0.37500000       0.12500000 </v>
    <v>       0.87500000       0.37500000       0.12500000 </v>
    <v>       0.37500000       0.87500000       0.12500000 </v>
    <v>       0.87500000       0.87500000       0.12500000 </v>
    <v>       0.37500000       0.37500000       0.62500000 </v>
    <v>       0.87500000       0.37500000       0.62500000 </v>
    <v>       0.37500000       0.87500000       0.62500000 </v>
    <v>       0.87500000       0.87500000       0.62500000 </v>
   </varray>
  </structure>
  <varray name="primitive_index" >
   <v type="int" >        1 </v>
   <v type="int" >        2 </v>
   <v type="int" >        3 </v>
   <v type="int" >        4 </v>
   <v type="int" >        5 </v>
   <v type="int" >        6 </v>
   <v type="int" >        7 </v>
   <v type="int" >        8 </v>
   <v type="int" >        9 </v>
   <v type="int" >       10 </v>
   <v type="int" >       11 </v>
   <v type="int" >       12 </v>
   <v type="int" >       13 </v>
   <v type="int" >       14 </v>
   <v type="int" >       15 </v>
   <v type="int" >       16 </v>
   <v type="int" >       17 </v>
   <v type="int" >       18 </v>
   <v type="int" >       19 </v>
   <v type="int" >       20 </v>
   <v type="int" >       21 </v>
   <v type="int" >       22 </v>
   <v type="int" >       23 </v>
   <v type="int" >       24 </v>
   <v type="int" >       25 </v>
   <v type="int" >       26 </v>
   <v type="int" >       27 </v>
   <v type="int" >       28 </v>
   <v type="int" >       29 </v>
   <v type="int" >       30 </v>
   <v type="int" >       31 </v>
   <v type="int" >       32 </v>
   <v type="int" >       33 </v>
   <v type="int" >       34 </v>
   <v type="int" >       35 </v>
   <v type="int" >       36 </v>
   <v type="int" >       37 </v>
   <v type="int" >       38 </v>
   <v type="int" >       39 </v>
   <v type="int" >       40 </v>
   <v type="int" >       41 </v>
   <v type="int" >       42 </v>
   <v type="int" >       43 </v>
   <v type="int" >       44 </v>
   <v type="int" >       45 </v>
   <v type="int" >       46 </v>
   <v type="int" >       47 </v>
   <v type="int" >       48 </v>
   <v type="int" >       49 </v>
   <v type="int" >       50 </v>
   <v type="int" >       51 </v>
   <v type="int" >       52 </v>
   <v type="int" >       53 </v>
   <v type="int" >       54 </v>
   <v type="int" >       55 </v>
   <v type="int" >       56 </v>
   <v type="int" >       57 </v>
   <v type="int" >       58 </v>
   <v type="int" >       59 </v>
   <v type="int" >       60 </v>
   <v type="int" >       61 </v>
   <v type="int" >       62 </v>
   <v type="int" >       63 </v>
   <v type="int" >       64 </v>
  </varray>
 </primitive_cell>
 <kpoints>
  <generation param="Gamma">
   <v type="int" name="divisions">       3        3        3 </v>
   <v name="usershift">      0.00000000       0.00000000       0.00000000 </v>
   <v name="genvec1">      0.33333333       0.00000000       0.00000000 </v>
   <v name="genvec2">      0.00000000       0.33333333       0.00000000 </v>
   <v name="genvec3">      0.00000000       0.00000000       0.33333333 </v>
   <v name="shift">      0.00000000       0.00000000       0.00000000 </v>
  </generation>
  <varray name="kpointlist" >
   <v>       0.00000000       0.00000000       0.00000000 </v>
   <v>       0.33333333       0.00000000       0.00000000 </v>
   <v>       0.00000000       0.33333333       0.00000000 </v>
   <v>       0.33333333       0.33333333       0.00000000 </v>
   <v>       0.00000000       0.33333333       0.33333333 </v>
   <v>       0.00000000      -0.33333333       0.33333333 </v>
   <v>       0.33333333       0.33333333       0.33333333 </v>
   <v>      -0.33333333      -0.33333333       0.33333333 </v>
  </varray>
  <varray name="weights" >
   <v>       0.03703704 </v>
   <v>       0.07407407 </v>
   <v>       0.14814815 </v>
   <v>       0.29629630 </v>
   <v>       0.07407407 </v>
   <v>       0.07407407 </v>
   <v>       0.14814815 </v>
   <v>       0.14814815 </v>
  </varray>
 </kpoints>
 <parameters>
  <separator name="general" >
   <i type="string" name="SYSTEM">unknown system</i>
   <i type="logical" name="LCOMPAT"> F  </i>
  </separator>
  <separator name="electronic" >
   <i type="string" name="PREC">normal</i>
   <i name="ENMAX">    360.00000000</i>
   <i name="ENAUG">    456.10600000</i>
   <i name="EDIFF">      0.00010000</i>
   <i type="int" name="IALGO">    38</i>
   <i type="int" name="IWAVPR">    10</i>
   <i type="int" name="NBANDS">   384</i>
   <i type="int" name="NBANDSLOW">    -1</i>
   <i type="int" name="NBANDSHIGH">    -1</i>
   <i name="NELECT">    576.00000000</i>
   <i type="int" name="TURBO">     0</i>
   <i type="int" name="IRESTART">     0</i>
   <i type="int" name="NREBOOT">     0</i>
   <i type="int" name="NMIN">     0</i>
   <i name="EREF">      0.00000000</i>
   <separator name="electronic smearing" >
    <i type="int" name="ISMEAR">     0</i>
    <i name="SIGMA">      0.05000000</i>
    <i name="KSPACING">      0.50000000</i>
    <i type="logical" name="KGAMMA"> T  </i>
    <i type="logical" name="KBLOWUP"> T  </i>
   </separator>
   <separator name="electronic projectors" >
    <i type="logical" name="LREAL"> F  </i>
    <v name="ROPT">      0.00000000      0.00000000</v>
    <i type="int" name="LMAXPAW">  -100</i>
    <i type="int" name="LMAXMIX">     2</i>
    <i type="logical" name="NLSPLINE"> F  </i>
   </separator>
   <separator name="electronic startup" >
    <i type="int" name="ISTART">     0</i>
    <i type="int" name="ICHARG">     2</i>
    <i type="int" name="INIWAV">     1</i>
   </separator>
   <separator name="electronic spin" >
    <i type="int" name="ISPIN">     1</i>
    <i type="logical" name="LNONCOLLINEAR"> F  </i>
    <v name="MAGMOM">      1.00000000      1.00000000      1.00000000      1.00000000      1.00000000      1.00000000      1.00000000      1.00000000      1.00000000      1.00000000      1.00000000      1.00000000      1.00000000      1.00000000      1.00000000      1.00000000      1.00000000      1.00000000      1.00000000      1.00000000
      1.00000000      1.00000000      1.00000000      1.00000000      1.00000000      1.00000000      1.00000000      1.00000000      1.00000000      1.00000000      1.00000000      1.00000000      1.00000000      1.00000000      1.00000000      1.00000000      1.00000000      1.00000000      1.00000000      1.00000000
      1.00000000      1.00000000      1.00000000      1.00000000      1.00000000      1.00000000      1.00000000      1.00000000      1.00000000      1.00000000      1.00000000      1.00000000      1.00000000      1.00000000      1.00000000      1.00000000      1.00000000      1.00000000      1.00000000      1.00000000
      1.00000000      1.00000000      1.00000000      1.00000000</v>
    <i name="NUPDOWN">     -1.00000000</i>
    <i type="logical" name="LSORBIT"> F  </i>
    <v name="SAXIS">      0.00000000      0.00000000      1.00000000</v>
    <i type="logical" name="LSPIRAL"> F  </i>
    <v name="QSPIRAL">      0.00000000      0.00000000      0.00000000</v>
    <i type="logical" name="LZEROZ"> F  </i>
   </separator>
   <separator name="electronic exchange-correlation" >
    <i type="logical" name="LASPH"> F  </i>
    <i type="logical" name="LMETAGGA"> F  </i>
   </separator>
   <separator name="electronic convergence" >
    <i type="int" name="NELM">    60</i>
    <i type="int" name="NELMDL">    -5</i>
    <i type="int" name="NELMIN">     2</i>
    <i name="ENINI">    360.00000000</i>
    <separator name="electronic convergence detail" >
     <i type="logical" name="LDIAG"> T  </i>
     <i type="logical" name="LSUBROT"> F  </i>
     <i name="WEIMIN">      0.00000000</i>
     <i name="EBREAK">      0.00000007</i>
     <i name="DEPER">      0.30000000</i>
     <i type="int" name="NRMM">     4</i>
     <i name="TIME">      0.40000000</i>
    </separator>
   </separator>
   <separator name="electronic mixer" >
    <i name="AMIX">      0.40000000</i>
    <i name="BMIX">      1.00000000</i>
    <i name="AMIN">      0.10000000</i>
    <i name="AMIX_MAG">      1.60000000</i>
    <i name="BMIX_MAG">      1.00000000</i>
    <separator name="electronic mixer details" >
     <i type="int" name="IMIX">     4</i>
     <i type="logical" name="MIXFIRST"> F  </i>
     <i type="int" name="MAXMIX">   -45</i>
     <i name="WC">    100.00000000</i>
     <i type="int" name="INIMIX">     1</i>
     <i type="int" name="MIXPRE">     1</i>
     <i type="int" name="MREMOVE">     5</i>
    </separator>
   </separator>
   <separator name="electronic dipolcorrection" >
    <i type="logical" name="LDIPOL"> F  </i>
    <i type="logical" name="LMONO"> F  </i>
    <i type="int" name="IDIPOL">     0</i>
    <i name="EPSILON">      1.00000000</i>
    <v name="DIPOL">   -100.00000000   -100.00000000   -100.00000000</v>
    <i name="EFIELD">      0.00000000</i>
   </separator>
  </separator>
  <separator name="grids" >
   <i type="int" name="NGX">    64</i>
   <i type="int" name="NGY">    64</i>
   <i type="int" name="NGZ">    64</i>
   <i type="int" name="NGXF">   128</i>
   <i type="int" name="NGYF">   128</i>
   <i type="int" name="NGZF">   128</i>
   <i type="logical" name="ADDGRID"> F  </i>
  </separator>
  <separator name="ionic" >
   <i type="int" name="NSW">     0</i>
   <i type="int" name="IBRION">    -1</i>
   <i type="int" name="MDALGO">     0</i>
   <i type="int" name="ISIF">     2</i>
   <i name="PSTRESS">      0.00000000</i>
   <i name="EDIFFG">      0.00100000</i>
   <i type="int" name="NFREE">     0</i>
   <i name="POTIM">      0.50000000</i>
   <i name="SMASS">     -3.00000000</i>
   <i name="SCALEE">      1.00000000</i>
  </separator>
  <separator name="ionic md" >
   <i name="TEBEG">      0.00010000</i>
   <i name="TEEND">      0.00010000</i>
   <i type="int" name="NBLOCK">     1</i>
   <i type="int" name="KBLOCK">     1</i>
   <i type="int" name="NPACO">   256</i>
   <i name="APACO">     10.00000000</i>
  </separator>
  <separator name="symmetry" >
   <i type="int" name="ISYM">     2</i>
   <i name="SYMPREC">      0.00001000</i>
  </separator>
  <separator name="dos" >
   <i type="int" name="LORBIT">     0</i>
   <v name="RWIGS">     -1.00000000     -1.00000000</v>
   <i type="int" name="NEDOS">   301</i>
   <i name="EMIN">     10.00000000</i>
   <i name="EMAX">    -10.00000000</i>
   <i name="EFERMI">      0.00000000</i>
  </separator>
  <separator name="writing" >
   <i type="int" name="NWRITE">     2</i>
   <i type="logical" name="LWAVE"> T  </i>
   <i type="logical" name="LDOWNSAMPLE"> F  </i>
   <i type="logical" name="LCHARG"> T  </i>
   <i type="logical" name="LPARD"> F  </i>
   <i type="logical" name="LVTOT"> F  </i>
   <i type="logical" name="LVHAR"> F  </i>
   <i type="logical" name="LELF"> F  </i>
   <i type="logical" name="LOPTICS"> F  </i>
   <v name="STM">      0.00000000      0.00000000      0.00000000      0.00000000      0.00000000      0.00000000      0.00000000</v>
  </separator>
  <separator name="performance" >
   <i type="int" name="NPAR">    48</i>
   <i type="int" name="NSIM">     4</i>
   <i type="int" name="NBLK">    -1</i>
   <i type="logical" name="LPLANE"> T  </i>
   <i type="logical" name="LSCALAPACK"> T  </i>
   <i type="logical" name="LSCAAWARE"> F  </i>
   <i type="logical" name="LSCALU"> F  </i>
   <i type="logical" name="LASYNC"> F  </i>
   <i type="logical" name="LORBITALREAL"> F  </i>
  </separator>
  <separator name="miscellaneous" >
   <i type="int" name="IDIOT">     3</i>
   <i type="int" name="PHON_NSTRUCT">    -1</i>
   <i type="logical" name="LMUSIC"> F  </i>
   <v name="POMASS">    112.41100000    127.60000000</v>
   <v name="DARWINR">      0.00000000      0.00000000</v>
   <v name="DARWINV">      1.00000000      1.00000000</v>
   <i type="logical" name="LCORR"> T  </i>
  </separator>
  <i type="logical" name="GGA_COMPAT"> T  </i>
  <i type="logical" name="LBERRY"> F  </i>
  <i type="int" name="ICORELEVEL">     0</i>
  <i type="logical" name="LDAU"> F  </i>
  <i type="int" name="I_CONSTRAINED_M">     0</i>
  <separator name="electronic exchange-correlation" >
   <i type="string" name="GGA">--</i>
   <i type="int" name="VOSKOWN">     0</i>
   <i type="logical" name="LHFCALC"> F  </i>
   <i type="string" name="PRECFOCK"></i>
   <i type="logical" name="LSYMGRAD"> F  </i>
   <i type="logical" name="LHFONE"> F  </i>
   <i type="logical" name="LRHFCALC"> F  </i>
   <i type="logical" name="LTHOMAS"> F  </i>
   <i type="logical" name="LMODELHF"> F  </i>
   <i type="logical" name="LFOCKACE"> F  </i>
   <i name="ENCUT4O">     -1.00000000</i>
   <i type="int" name="EXXOEP">     0</i>
   <i type="int" name="FOURORBIT">     0</i>
   <i name="AEXX">      0.00000000</i>
   <i name="HFALPHA">      0.00000000</i>
   <i name="MCALPHA">      0.00000000</i>
   <i name="ALDAX">      1.00000000</i>
   <i name="AGGAX">      1.00000000</i>
   <i name="ALDAC">      1.00000000</i>
   <i name="AGGAC">      1.00000000</i>
   <i type="int" name="NKREDX">     1</i>
   <i type="int" name="NKREDY">     1</i>
   <i type="int" name="NKREDZ">     1</i>
   <i type="logical" name="SHIFTRED"> F  </i>
   <i type="logical" name="ODDONLY"> F  </i>
   <i type="logical" name="EVENONLY"> F  </i>
   <i type="int" name="LMAXFOCK">     0</i>
   <i type="int" name="NMAXFOCKAE">     0</i>
   <i type="logical" name="LFOCKAEDFT"> F  </i>
   <i name="HFSCREEN">      0.00000000</i>
   <i name="HFSCREENC">      0.00000000</i>
   <i type="int" name="NBANDSGWLOW">     0</i>
  </separator>
  <separator name="vdW DFT" >
   <i type="logical" name="LUSE_VDW"> F  </i>
   <i name="Zab_VDW">     -0.84910000</i>
   <i name="PARAM1">      0.12340000</i>
   <i name="PARAM2">      1.00000000</i>
   <i name="PARAM3">      0.00000000</i>
  </separator>
  <separator name="model GW" >
   <i type="int" name="MODEL_GW">     0</i>
   <i name="MODEL_EPS0">     21.19942863</i>
   <i name="MODEL_ALPHA">      1.00000000</i>
  </separator>
  <separator name="linear response parameters" >
   <i type="logical" name="LEPSILON"> F  </i>
   <i type="logical" name="LRPA"> F  </i>
   <i type="logical" name="LNABLA"> F  </i>
   <i type="logical" name="LVEL"> F  </i>
   <i name="CSHIFT">      0.10000000</i>
   <i name="OMEGAMAX">     -1.00000000</i>
   <i name="DEG_THRESHOLD">      0.00200000</i>
   <i name="RTIME">     -0.10000000</i>
   <i name="WPLASMAI">      0.00000000</i>
   <v name="DFIELD">      0.00000000      0.00000000      0.00000000</v>
   <v name="WPLASMA">      0.00000000      0.00000000      0.00000000      0.00000000      0.00000000      0.00000000      0.00000000      0.00000000      0.00000000</v>
  </separator>
  <separator name="orbital magnetization" >
   <i type="logical" name="NUCIND"> F  </i>
   <v name="MAGPOS">      0.00000000      0.00000000      0.00000000</v>
   <i type="logical" name="LNICSALL"> T  </i>
   <i type="logical" name="ORBITALMAG"> F  </i>
   <i type="logical" name="LMAGBLOCH"> F  </i>
   <i type="logical" name="LCHIMAG"> F  </i>
   <i type="logical" name="LGAUGE"> T  </i>
   <i type="int" name="MAGATOM">     0</i>
   <v name="MAGDIPOL">      0.00000000      0.00000000      0.00000000</v>
   <v name="AVECCONST">      0.00000000      0.00000000      0.00000000</v>
  </separator>
  <separator name="response functions" >
   <i type="logical" name="LFINITE_TEMPERATURE"> F  </i>
   <i type="logical" name="LADDER"> F  </i>
   <i type="logical" name="LRPAFORCE"> F  </i>
   <i type="logical" name="LFXC"> F  </i>
   <i type="logical" name="LHARTREE"> T  </i>
   <i type="int" name="IBSE">     0</i>
   <v type="int" name="KPOINT">    -1     0     0     0</v>
   <i type="logical" name="LTCTC"> F  </i>
   <i type="logical" name="LTCTE"> F  </i>
   <i type="logical" name="LTETE"> F  </i>
   <i type="logical" name="LTRIPLET"> F  </i>
   <i type="logical" name="LFXCEPS"> F  </i>
   <i type="logical" name="LFXHEG"> F  </i>
   <i type="int" name="NATURALO">     2</i>
   <i type="logical" name="LHOLEGF"> F  </i>
   <i type="logical" name="L2ORDER"> F  </i>
   <i type="logical" name="LDMP1"> F  </i>
   <i type="logical" name="LMP2LT"> F  </i>
   <i type="logical" name="LSMP2LT"> F  </i>
   <i type="logical" name="LGWLF"> F  </i>
   <i name="ENCUTGW">     -2.00000000</i>
   <i name="ENCUTGWSOFT">     -2.00000000</i>
   <i name="ENCUTLF">     -1.00000000</i>
   <i type="logical" name="LESF_SPLINES"> F  </i>
   <i type="int" name="LMAXMP2">    -1</i>
   <i name="SCISSOR">      0.00000000</i>
   <i type="int" name="NOMEGA">     0</i>
   <i type="int" name="NOMEGAR">     0</i>
   <i type="int" name="NBANDSGW">    -1</i>
   <i type="int" name="NBANDSO">    -1</i>
   <i type="int" name="NBANDSV">    -1</i>
   <i type="int" name="NELMGW">     1</i>
   <i type="int" name="NELMHF">     1</i>
   <i type="int" name="DIM">     3</i>
   <i type="int" name="IESPILON">     4</i>
   <i type="int" name="ANTIRES">     0</i>
   <i name="OMEGAMAX">    -30.00000000</i>
   <i name="OMEGAMIN">    -30.00000000</i>
   <i name="OMEGATL">   -200.00000000</i>
   <i type="int" name="OMEGAGRID">     0</i>
   <i name="CSHIFT">     -0.10000000</i>
   <i type="logical" name="LSELFENERGY"> F  </i>
   <i type="logical" name="LSPECTRAL"> F  </i>
   <i type="logical" name="LSPECTRALGW"> F  </i>
   <i type="logical" name="LSINGLES"> F  </i>
   <i type="logical" name="LFERMIGW"> F  </i>
   <i type="logical" name="ODDONLYGW"> F  </i>
   <i type="logical" name="EVENONLYGW"> F  </i>
   <i type="int" name="NKREDLFX">     1</i>
   <i type="int" name="NKREDLFY">     1</i>
   <i type="int" name="NKREDLFZ">     1</i>
   <i type="int" name="MAXMEM">  2800</i>
   <i type="int" name="TELESCOPE">     0</i>
   <i type="int" name="NTAUPAR">    -1</i>
   <i type="int" name="NOMEGAPAR">    -1</i>
   <i name="DAMP_NEWTON">      0.80000001</i>
   <i name="LAMBDA">      1.00000000</i>
  </separator>
  <separator name="External order field" >
   <i name="OFIELD_KAPPA">      0.00000000</i>
   <v name="OFIELD_K">      0.00000000      0.00000000      0.00000000</v>
   <i name="OFIELD_Q6_NEAR">      0.00000000</i>
   <i name="OFIELD_Q6_FAR">      0.00000000</i>
   <i name="OFIELD_A">      0.00000000</i>
  </separator>
  <separator name="optional k-points parameters" >
   <i type="int" name="KPOINTS_OPT_MODE">     1</i>
   <i type="logical" name="LKPOINTS_OPT"> F  </i>
  </separator>
 </parameters>
 <atominfo>
  <atoms>      64 </atoms>
  <types>       2 </types>
  <array name="atoms" >
   <dimension dim="1">ion</dimension>
   <field type="string">element</field>
   <field type="int">atomtype</field>
   <set>
    <rc><c>Cd</c><c>   1</c></rc>
    <rc><c>Cd</c><c>   1</c></rc>
    <rc><c>Cd</c><c>   1</c></rc>
    <rc><c>Cd</c><c>   1</c></rc>
    <rc><c>Cd</c><c>   1</c></rc>
    <rc><c>Cd</c><c>   1</c></rc>
    <rc><c>Cd</c><c>   1</c></rc>
    <rc><c>Cd</c><c>   1</c></rc>
    <rc><c>Cd</c><c>   1</c></rc>
    <rc><c>Cd</c><c>   1</c></rc>
    <rc><c>Cd</c><c>   1</c></rc>
    <rc><c>Cd</c><c>   1</c></rc>
    <rc><c>Cd</c><c>   1</c></rc>
    <rc><c>Cd</c><c>   1</c></rc>
    <rc><c>Cd</c><c>   1</c></rc>
    <rc><c>Cd</c><c>   1</c></rc>
    <rc><c>Cd</c><c>   1</c></rc>
    <rc><c>Cd</c><c>   1</c></rc>
    <rc><c>Cd</c><c>   1</c></rc>
    <rc><c>Cd</c><c>   1</c></rc>
    <rc><c>Cd</c><c>   1</c></rc>
    <rc><c>Cd</c><c>   1</c></rc>
    <rc><c>Cd</c><c>   1</c></rc>
    <rc><c>Cd</c><c>   1</c></rc>
    <rc><c>Cd</c><c>   1</c></rc>
    <rc><c>Cd</c><c>   1</c></rc>
    <rc><c>Cd</c><c>   1</c></rc>
    <rc><c>Cd</c><c>   1</c></rc>
    <rc><c>Cd</c><c>   1</c></rc>
    <rc><c>Cd</c><c>   1</c></rc>
    <rc><c>Cd</c><c>   1</c></rc>
    <rc><c>Cd</c><c>   1</c></rc>
    <rc><c>Te</c><c>   2</c></rc>
    <rc><c>Te</c><c>   2</c></rc>
    <rc><c>Te</c><c>   2</c></rc>
    <rc><c>Te</c><c>   2</c></rc>
    <rc><c>Te</c><c>   2</c></rc>
    <rc><c>Te</c><c>   2</c></rc>
    <rc><c>Te</c><c>   2</c></rc>
    <rc><c>Te</c><c>   2</c></rc>
    <rc><c>Te</c><c>   2</c></rc>
    <rc><c>Te</c><c>   2</c></rc>
    <rc><c>Te</c><c>   2</c></rc>
    <rc><c>Te</c><c>   2</c></rc>
    <rc><c>Te</c><c>   2</c></rc>
    <rc><c>Te</c><c>   2</c></rc>
    <rc><c>Te</c><c>   2</c></rc>
    <rc><c>Te</c><c>   2</c></rc>
    <rc><c>Te</c><c>   2</c></rc>
    <rc><c>Te</c><c>   2</c></rc>
    <rc><c>Te</c><c>   2</c></rc>
    <rc><c>Te</c><c>   2</c></rc>
    <rc><c>Te</c><c>   2</c></rc>
    <rc><c>Te</c><c>   2</c></rc>
    <rc><c>Te</c><c>   2</c></rc>
    <rc><c>Te</c><c>   2</c></rc>
    <rc><c>Te</c><c>   2</c></rc>
    <rc><c>Te</c><c>   2</c></rc>
    <rc><c>Te</c><c>   2</c></rc>
    <rc><c>Te</c><c>   2</c></rc>
    <rc><c>Te</c><c>   2</c></rc>
    <rc><c>Te</c><c>   2</c></rc>
    <rc><c>Te</c><c>   2</c></rc>
    <rc><c>Te</c><c>   2</c></rc>
   </set>
  </array>
  <array name="atomtypes" >
   <dimension dim="1">type</dimension>
   <field type="int">atomspertype</field>
   <field type="string">element</field>
   <field>mass</field>
   <field>valence</field>
   <field type="string">pseudopotential</field>
   <set>
    <rc><c>  32</c><c>Cd</c><c>    112.41100000</c><c>     12.00000000</c><c>  PAW_PBE Cd 06Sep2000                  </c></rc>
    <rc><c>  32</c><c>Te</c><c>    127.60000000</c><c>      6.00000000</c><c>  PAW_PBE Te 08Apr2002                  </c></rc>
   </set>
  </array>
 </atominfo>
 <structure name="initialpos" >
  <crystal>
   <varray name="basis" >
    <v>      13.12555350       0.00000000       0.00000000 </v>
    <v>       0.00000000      13.12555350       0.00000000 </v>
    <v>       0.00000000       0.00000000      13.12555350 </v>
   </varray>
   <i name="volume">   2261.27238683 </i>
   <varray name="rec_basis" >
    <v>       0.07618726       0.00000000       0.00000000 </v>
    <v>       0.00000000       0.07618726       0.00000000 </v>
    <v>       0.00000000       0.00000000       0.07618726 </v>
   </varray>
  </crystal>
  <varray name="positions" >
   <v>       0.00000000       0.00000000       0.00000000 </v>
   <v>       0.50000000       0.00000000       0.00000000 </v>
   <v>       0.00000000       0.50000000       0.00000000 </v>
   <v>       0.50000000       0.50000000       0.00000000 </v>
   <v>       0.00000000       0.00000000       0.50000000 </v>
   <v>       0.50000000       0.00000000       0.50000000 </v>
   <v>       0.00000000       0.50000000       0.50000000 </v>
   <v>       0.50000000       0.50000000       0.50000000 </v>
   <v>       0.00000000       0.25000000       0.25000000 </v>
   <v>       0.50000000       0.25000000       0.25000000 </v>
   <v>       0.00000000       0.75000000       0.25000000 </v>
   <v>       0.50000000       0.75000000       0.25000000 </v>
   <v>       0.00000000       0.25000000       0.75000000 </v>
   <v>       0.50000000       0.25000000       0.75000000 </v>
   <v>       0.00000000       0.75000000       0.75000000 </v>
   <v>       0.50000000       0.75000000       0.75000000 </v>
   <v>       0.25000000       0.00000000       0.25000000 </v>
   <v>       0.75000000       0.00000000       0.25000000 </v>
   <v>       0.25000000       0.50000000       0.25000000 </v>
   <v>       0.75000000       0.50000000       0.25000000 </v>
   <v>       0.25000000       0.00000000       0.75000000 </v>
   <v>       0.75000000       0.00000000       0.75000000 </v>
   <v>       0.25000000       0.50000000       0.75000000 </v>
   <v>       0.75000000       0.50000000       0.75000000 </v>
   <v>       0.25000000       0.25000000       0.00000000 </v>
   <v>       0.75000000       0.25000000       0.00000000 </v>
   <v>       0.25000000       0.75000000       0.00000000 </v>
   <v>       0.75000000       0.75000000       0.00000000 </v>
   <v>       0.25000000       0.25000000       0.50000000 </v>
   <v>       0.75000000       0.25000000       0.50000000 </v>
   <v>       0.25000000       0.75000000       0.50000000 </v>
   <v>       0.75000000       0.75000000       0.50000000 </v>
   <v>       0.12576187       0.12500000       0.12500000 </v>
   <v>       0.62500000       0.12500000       0.12500000 </v>
   <v>       0.12500000       0.62500000       0.12500000 </v>
   <v>       0.62500000       0.62500000       0.12500000 </v>
   <v>       0.12500000       0.12500000       0.62500000 </v>
   <v>       0.62500000       0.12500000       0.62500000 </v>
   <v>       0.12500000       0.62500000       0.62500000 </v>
   <v>       0.62500000       0.62500000       0.62500000 </v>
   <v>       0.12500000       0.37500000       0.37500000 </v>
   <v>       0.62500000       0.37500000       0.37500000 </v>
   <v>       0.12500000       0.87500000       0.37500000 </v>
   <v>       0.62500000       0.87500000       0.37500000 </v>
   <v>       0.12500000       0.37500000       0.87500000 </v>
   <v>       0.62500000       0.37500000       0.87500000 </v>
   <v>       0.12500000       0.87500000       0.87500000 </v>
   <v>       0.62500000       0.87500000       0.87500000 </v>
   <v>       0.37500000       0.12500000       0.37500000 </v>
   <v>       0.87500000       0.12500000       0.37500000 </v>
   <v>       0.37500000       0.62500000       0.37500000 </v>
   <v>       0.87500000       0.62500000       0.37500000 </v>
   <v>       0.37500000       0.12500000       0.87500000 </v>
   <v>       0.87500000       0.12500000       0.87500000 </v>
   <v>       0.37500000       0.62500000       0.87500000 </v>
   <v>       0.87500000       0.62500000       0.87500000 </v>
   <v>       0.37500000       0.37500000       0.12500000 </v>
   <v>       0.87500000       0.37500000       0.12500000 </v>
   <v>       0.37500000       0.87500000       0.12500000 </v>
   <v>       0.87500000       0.87500000       0.12500000 </v>
   <v>       0.37500000       0.37500000       0.62500000 </v>
   <v>       0.87500000       0.37500000       0.62500000 </v>
   <v>       0.37500000       0.87500000       0.62500000 </v>
   <v>       0.87500000       0.87500000       0.62500000 </v>
  </varray>
 </structure>
 <calculation>
  <scstep>
   <time name="dav">   45.21   45.70</time>
   <time name="total">   45.26   45.78</time>
   <energy>
    <i name="alphaZ">   1547.45553725 </i>
    <i name="ewald"> -33026.64737800 </i>
    <i name="hartreedc"> -16549.55747827 </i>
    <i name="XCdc">   -728.38619485 </i>
    <i name="pawpsdc">  44941.76741987 </i>
    <i name="pawaedc"> -42629.27134123 </i>
    <i name="eentropy">     -0.02077423 </i>
    <i name="bandstr">    946.20369580 </i>
    <i name="atom">  48525.04422734 </i>
    <i name="e_fr_energy">   3026.58771368 </i>
    <i name="e_wo_entrp">   3026.60848790 </i>
    <i name="e_0_energy">   3026.59810079 </i>
   </energy>
  </scstep>
  <scstep>
   <time name="dav">   49.93   50.45</time>
   <time name="total">   49.93   50.45</time>
   <energy>
    <i name="e_fr_energy">      6.70350563 </i>
    <i name="e_wo_entrp">      6.70350563 </i>
    <i name="e_0_energy">      6.70350563 </i>
   </energy>
  </scstep>
  <scstep>
   <time name="dav">   51.71   52.24</time>
   <time name="total">   51.71   52.24</time>
   <energy>
    <i name="e_fr_energy">   -158.51857088 </i>
    <i name="e_wo_entrp">   -158.51857088 </i>
    <i name="e_0_energy">   -158.51857088 </i>
   </energy>
  </scstep>
  <scstep>
   <time name="dav">   52.15   52.77</time>
   <time name="total">   52.15   52.77</time>
   <energy>
    <i name="e_fr_energy">   -161.12940203 </i>
    <i name="e_wo_entrp">   -161.12940203 </i>
    <i name="e_0_energy">   -161.12940203 </i>
   </energy>
  </scstep>
  <scstep>
   <time name="dav">   49.46   49.93</time>
   <time name="total">   49.81   50.29</time>
   <energy>
    <i name="e_fr_energy">   -161.16419159 </i>
    <i name="e_wo_entrp">   -161.16419159 </i>
    <i name="e_0_energy">   -161.16419159 </i>
   </energy>
  </scstep>
  <scstep>
   <time name="dav">   49.28   49.75</time>
   <time name="total">   49.68   50.18</time>
   <energy>
    <i name="e_fr_energy">   -154.10171470 </i>
    <i name="e_wo_entrp">   -154.10171470 </i>
    <i name="e_0_energy">   -154.10171470 </i>
   </energy>
  </scstep>
  <scstep>
   <time name="dav">   48.19   48.63</time>
   <time name="total">   48.56   49.01</time>
   <energy>
    <i name="e_fr_energy">   -153.71402266 </i>
    <i name="e_wo_entrp">   -153.71402266 </i>
    <i name="e_0_energy">   -153.71402266 </i>
   </energy>
  </scstep>
  <scstep>
   <time name="dav">   49.28   49.76</time>
   <time name="total">   49.68   50.18</time>
   <energy>
    <i name="e_fr_energy">   -153.68450226 </i>
    <i name="e_wo_entrp">   -153.68450226 </i>
    <i name="e_0_energy">   -153.68450226 </i>
   </energy>
  </scstep>
  <scstep>
   <time name="dav">   48.45   48.91</time>
   <time name="total">   48.82   49.29</time>
   <energy>
    <i name="e_fr_energy">   -153.68850188 </i>
    <i name="e_wo_entrp">   -153.68850188 </i>
    <i name="e_0_energy">   -153.68850188 </i>
   </energy>
  </scstep>
  <scstep>
   <time name="dav">   50.69   51.16</time>
   <time name="total">   51.09   51.58</time>
   <energy>
    <i name="e_fr_energy">   -153.68506326 </i>
    <i name="e_wo_entrp">   -153.68506326 </i>
    <i name="e_0_energy">   -153.68506326 </i>
   </energy>
  </scstep>
  <scstep>
   <time name="dav">   48.44   48.90</time>
   <time name="total">   48.81   49.27</time>
   <energy>
    <i name="e_fr_energy">   -153.68542717 </i>
    <i name="e_wo_entrp">   -153.68542717 </i>
    <i name="e_0_energy">   -153.68542717 </i>
   </energy>
  </scstep>
  <scstep>
   <time name="dav">   45.73   46.16</time>
   <time name="total">   46.13   46.58</time>
   <energy>
    <i name="e_fr_energy">   -153.68570037 </i>
    <i name="e_wo_entrp">   -153.68570037 </i>
    <i name="e_0_energy">   -153.68570037 </i>
   </energy>
  </scstep>
  <scstep>
   <time name="dav">   43.06   43.47</time>
   <time name="total">   43.44   43.84</time>
   <energy>
    <i name="e_fr_energy">   -153.68586430 </i>
    <i name="e_wo_entrp">   -153.68586430 </i>
    <i name="e_0_energy">   -153.68586430 </i>
   </energy>
  </scstep>
  <scstep>
   <time name="dav">   36.38   36.72</time>
   <time name="total">   36.43   36.80</time>
   <energy>
    <i name="alphaZ">   1547.45553725 </i>
    <i name="ewald"> -33026.64737800 </i>
    <i name="hartreedc"> -16343.52847168 </i>
    <i name="XCdc">   -726.21152029 </i>
    <i name="pawpsdc">  54885.95018316 </i>
    <i name="pawaedc"> -52559.39287151 </i>
    <i name="eentropy">     -0.00000000 </i>
    <i name="bandstr">  -2456.35558239 </i>
    <i name="atom">  48525.04422734 </i>
    <i name="e_fr_energy">   -153.68587611 </i>
    <i name="e_wo_entrp">   -153.68587611 </i>
    <i name="e_0_energy">   -153.68587611 </i>
   </energy>
  </scstep>
  <structure>
   <crystal>
    <varray name="basis" >
     <v>      13.12555350       0.00000000       0.00000000 </v>
     <v>       0.00000000      13.12555350       0.00000000 </v>
     <v>       0.00000000       0.00000000      13.12555350 </v>
    </varray>
    <i name="volume">   2261.27238683 </i>
    <varray name="rec_basis" >
     <v>       0.07618726       0.00000000       0.00000000 </v>
     <v>       0.00000000       0.07618726       0.00000000 </v>
     <v>       0.00000000       0.00000000       0.07618726 </v>
    </varray>
   </crystal>
   <varray name="positions" >
    <v>       0.00000000       0.00000000       0.00000000 </v>
    <v>       0.50000000       0.00000000       0.00000000 </v>
    <v>       0.00000000       0.50000000       0.00000000 </v>
    <v>       0.50000000       0.50000000       0.00000000 </v>
    <v>       0.00000000       0.00000000       0.50000000 </v>
    <v>       0.50000000       0.00000000       0.50000000 </v>
    <v>       0.00000000       0.50000000       0.50000000 </v>
    <v>       0.50000000       0.50000000       0.50000000 </v>
    <v>       0.00000000       0.25000000       0.25000000 </v>
    <v>       0.50000000       0.25000000       0.25000000 </v>
    <v>       0.00000000       0.75000000       0.25000000 </v>
    <v>       0.50000000       0.75000000       0.25000000 </v>
    <v>       0.00000000       0.25000000       0.75000000 </v>
    <v>       0.50000000       0.25000000       0.75000000 </v>
    <v>       0.00000000       0.75000000       0.75000000 </v>
    <v>       0.50000000       0.75000000       0.75000000 </v>
    <v>       0.25000000       0.00000000       0.25000000 </v>
    <v>       0.75000000       0.00000000       0.25000000 </v>
    <v>       0.25000000       0.50000000       0.25000000 </v>
    <v>       0.75000000       0.50000000       0.25000000 </v>
    <v>       0.25000000       0.00000000       0.75000000 </v>
    <v>       0.75000000       0.00000000       0.75000000 </v>
    <v>       0.25000000       0.50000000       0.75000000 </v>
    <v>       0.75000000       0.50000000       0.75000000 </v>
    <v>       0.25000000       0.25000000       0.00000000 </v>
    <v>       0.75000000       0.25000000       0.00000000 </v>
    <v>       0.25000000       0.75000000       0.00000000 </v>
    <v>       0.75000000       0.75000000       0.00000000 </v>
    <v>       0.25000000       0.25000000       0.50000000 </v>
    <v>       0.75000000       0.25000000       0.50000000 </v>
    <v>       0.25000000       0.75000000       0.50000000 </v>
    <v>       0.75000000       0.75000000       0.50000000 </v>
    <v>       0.12576187       0.12500000       0.12500000 </v>
    <v>       0.62500000       0.12500000       0.12500000 </v>
    <v>       0.12500000       0.62500000       0.12500000 </v>
    <v>       0.62500000       0.62500000       0.12500000 </v>
    <v>       0.12500000       0.12500000       0.62500000 </v>
    <v>       0.62500000       0.12500000       0.62500000 </v>
    <v>       0.12500000       0.62500000       0.62500000 </v>
    <v>       0.62500000       0.62500000       0.62500000 </v>
    <v>       0.12500000       0.37500000       0.37500000 </v>
    <v>       0.62500000       0.37500000       0.37500000 </v>
    <v>       0.12500000       0.87500000       0.37500000 </v>
    <v>       0.62500000       0.87500000       0.37500000 </v>
    <v>       0.12500000       0.37500000       0.87500000 </v>
    <v>       0.62500000       0.37500000       0.87500000 </v>
    <v>       0.12500000       0.87500000       0.87500000 </v>
    <v>       0.62500000       0.87500000       0.87500000 </v>
    <v>       0.37500000       0.12500000       0.37500000 </v>
    <v>       0.87500000       0.12500000       0.37500000 </v>
    <v>       0.37500000       0.62500000       0.37500000 </v>
    <v>       0.87500000       0.62500000       0.37500000 </v>
    <v>       0.37500000       0.12500000       0.87500000 </v>
    <v>       0.87500000       0.12500000       0.87500000 </v>
    <v>       0.37500000       0.62500000       0.87500000 </v>
    <v>       0.87500000       0.62500000       0.87500000 </v>
    <v>       0.37500000       0.37500000       0.12500000 </v>
    <v>       0.87500000       0.37500000       0.12500000 </v>
    <v>       0.37500000       0.87500000       0.12500000 </v>
    <v>       0.87500000       0.87500000       0.12500000 </v>
    <v>       0.37500000       0.37500000       0.62500000 </v>
    <v>       0.87500000       0.37500000       0.62500000 </v>
    <v>       0.37500000       0.87500000       0.62500000 </v>
    <v>       0.87500000       0.87500000       0.62500000 </v>
   </varray>
  </structure>
  <varray name="forces" >
   <v>       0.01121961       0.01005709       0.01005709 </v>
   <v>      -0.00059909       0.00000076       0.00000076 </v>
   <v>       0.00033266       0.00028280      -0.00014622 </v>
   <v>      -0.00055140      -0.00039291       0.00061372 </v>
   <v>       0.00033266      -0.00014622       0.00028280 </v>
   <v>      -0.00055140       0.00061372      -0.00039291 </v>
   <v>       0.00033008      -0.00009367      -0.00009367 </v>
   <v>      -0.00020084       0.00004753       0.00004753 </v>
   <v>       0.01121961      -0.01005709      -0.01005709 </v>
   <v>      -0.00059909      -0.00000076      -0.00000076 </v>
   <v>       0.00033266      -0.00028280       0.00014622 </v>
   <v>      -0.00055140       0.00039291      -0.00061372 </v>
   <v>       0.00033266       0.00014622      -0.00028280 </v>
   <v>      -0.00055140      -0.00061372       0.00039291 </v>
   <v>       0.00033008       0.00009367       0.00009367 </v>
   <v>      -0.00020084      -0.00004753      -0.00004753 </v>
   <v>       0.01136799      -0.01033971       0.01033971 </v>
   <v>      -0.00059895      -0.00000079       0.00000079 </v>
   <v>       0.00033748      -0.00028230      -0.00014964 </v>
   <v>      -0.00055132       0.00039223       0.00060899 </v>
   <v>       0.00033748       0.00014964       0.00028230 </v>
   <v>      -0.00055132      -0.00060899      -0.00039223 </v>
   <v>       0.00033597       0.00009552      -0.00009552 </v>
   <v>      -0.00020071      -0.00004819       0.00004819 </v>
   <v>       0.01136799       0.01033971      -0.01033971 </v>
   <v>      -0.00059895       0.00000079      -0.00000079 </v>
   <v>       0.00033748       0.00028230       0.00014964 </v>
   <v>      -0.00055132      -0.00039223      -0.00060899 </v>
   <v>       0.00033748      -0.00014964      -0.00028230 </v>
   <v>      -0.00055132       0.00060899       0.00039223 </v>
   <v>       0.00033597      -0.00009552       0.00009552 </v>
   <v>      -0.00020071       0.00004819      -0.00004819 </v>
   <v>      -0.06125940       0.00000000      -0.00000000 </v>
   <v>       0.00038149       0.00000000      -0.00000000 </v>
   <v>      -0.00022571       0.00000000      -0.00000000 </v>
   <v>       0.00107559       0.00000000      -0.00000000 </v>
   <v>      -0.00022571       0.00000000      -0.00000000 </v>
   <v>       0.00107559       0.00000000      -0.00000000 </v>
   <v>      -0.00016400       0.00000000      -0.00000000 </v>
   <v>       0.00011460       0.00000000      -0.00000000 </v>
   <v>       0.00015655       0.00049879       0.00049879 </v>
   <v>       0.00031181      -0.00003195      -0.00003195 </v>
   <v>       0.00016191       0.00051256      -0.00051256 </v>
   <v>       0.00031211      -0.00003223       0.00003223 </v>
   <v>       0.00016191      -0.00051256       0.00051256 </v>
   <v>       0.00031211       0.00003223      -0.00003223 </v>
   <v>       0.00015655      -0.00049879      -0.00049879 </v>
   <v>       0.00031181       0.00003195       0.00003195 </v>
   <v>       0.00196352      -0.00050336       0.00226301 </v>
   <v>       0.00194642      -0.00050734      -0.00223782 </v>
   <v>       0.00001452       0.00003143       0.00009902 </v>
   <v>       0.00001680       0.00003198      -0.00009777 </v>
   <v>       0.00196352       0.00050336      -0.00226301 </v>
   <v>       0.00194642       0.00050734       0.00223782 </v>
   <v>       0.00001452      -0.00003143      -0.00009902 </v>
   <v>       0.00001680      -0.00003198       0.00009777 </v>
   <v>       0.00196352       0.00226301      -0.00050336 </v>
   <v>       0.00194642      -0.00223782      -0.00050734 </v>
   <v>       0.00196352      -0.00226301       0.00050336 </v>
   <v>       0.00194642       0.00223782       0.00050734 </v>
   <v>       0.00001452       0.00009902       0.00003143 </v>
   <v>       0.00001680      -0.00009777       0.00003198 </v>
   <v>       0.00001452      -0.00009902      -0.00003143 </v>
   <v>       0.00001680       0.00009777      -0.00003198 </v>
  </varray>
  <varray name="stress" >
   <v>       7.32087197       0.00000000      -0.00000000 </v>
   <v>       0.00000000       7.32144677      -0.03881838 </v>
   <v>       0.00000000      -0.03881838       7.32144677 </v>
  </varray>
  <energy>
   <i name="e_fr_energy">   -153.68587611 </i>
   <i name="e_wo_entrp">   -153.68587611 </i>
   <i name="e_0_energy">   -153.68587611 </i>
  </energy>
  <time name="totalsc">  759.95  769.17</time>
  <eigenvalues>
   <array>
    <dimension dim="1">band</dimension>
    <dimension dim="2">kpoint</dimension>
    <dimension dim="3">spin</dimension>
    <field>eigene</field>
    <field>occ</field>
    <set>
     <set comment="spin 1">
      <set comment="kpoint 1">
       <r>   -8.9536    1.0000 </r>
       <r>   -8.7118    1.0000 </r>
       <r>   -8.7117    1.0000 </r>
       <r>   -8.7117    1.0000 </r>
       <r>   -8.7116    1.0000 </r>
       <r>   -8.7116    1.0000 </r>
       <r>   -8.7115    1.0000 </r>
       <r>   -8.5938    1.0000 </r>
       <r>   -8.5938    1.0000 </r>
       <r>   -8.5937    1.0000 </r>
       <r>   -8.5934    1.0000 </r>
       <r>   -8.5933    1.0000 </r>
       <r>   -8.5933    1.0000 </r>
       <r>   -8.5933    1.0000 </r>
       <r>   -8.5933    1.0000 </r>
       <r>   -8.5932    1.0000 </r>
       <r>   -8.5930    1.0000 </r>
       <r>   -8.5930    1.0000 </r>
       <r>   -8.5930    1.0000 </r>
       <r>   -8.5910    1.0000 </r>
       <r>   -8.5908    1.0000 </r>
       <r>   -8.5908    1.0000 </r>
       <r>   -8.5908    1.0000 </r>
       <r>   -8.4821    1.0000 </r>
       <r>   -8.4818    1.0000 </r>
       <r>   -8.4818    1.0000 </r>
       <r>   -8.4818    1.0000 </r>
       <r>   -8.4817    1.0000 </r>
       <r>   -8.4816    1.0000 </r>
       <r>   -8.4804    1.0000 </r>
       <r>   -8.4804    1.0000 </r>
       <r>   -8.4801    1.0000 </r>
       <r>   -6.1409    1.0000 </r>
       <r>   -6.1407    1.0000 </r>
       <r>   -6.1406    1.0000 </r>
       <r>   -6.0847    1.0000 </r>
       <r>   -6.0844    1.0000 </r>
       <r>   -6.0844    1.0000 </r>
       <r>   -6.0843    1.0000 </r>
       <r>   -6.0842    1.0000 </r>
       <r>   -6.0841    1.0000 </r>
       <r>   -6.0841    1.0000 </r>
       <r>   -6.0839    1.0000 </r>
       <r>   -6.0726    1.0000 </r>
       <r>   -6.0719    1.0000 </r>
       <r>   -6.0719    1.0000 </r>
       <r>   -6.0718    1.0000 </r>
       <r>   -6.0718    1.0000 </r>
       <r>   -6.0718    1.0000 </r>
       <r>   -6.0718    1.0000 </r>
       <r>   -6.0717    1.0000 </r>
       <r>   -6.0717    1.0000 </r>
       <r>   -6.0717    1.0000 </r>
       <r>   -6.0716    1.0000 </r>
       <r>   -6.0713    1.0000 </r>
       <r>   -6.0701    1.0000 </r>
       <r>   -6.0697    1.0000 </r>
       <r>   -6.0697    1.0000 </r>
       <r>   -6.0697    1.0000 </r>
       <r>   -6.0696    1.0000 </r>
       <r>   -6.0696    1.0000 </r>
       <r>   -6.0695    1.0000 </r>
       <r>   -6.0695    1.0000 </r>
       <r>   -6.0695    1.0000 </r>
       <r>   -6.0695    1.0000 </r>
       <r>   -6.0694    1.0000 </r>
       <r>   -6.0690    1.0000 </r>
       <r>   -6.0677    1.0000 </r>
       <r>   -6.0675    1.0000 </r>
       <r>   -6.0674    1.0000 </r>
       <r>   -6.0674    1.0000 </r>
       <r>   -6.0673    1.0000 </r>
       <r>   -6.0673    1.0000 </r>
       <r>   -6.0673    1.0000 </r>
       <r>   -6.0673    1.0000 </r>
       <r>   -6.0672    1.0000 </r>
       <r>   -6.0672    1.0000 </r>
       <r>   -6.0671    1.0000 </r>
       <r>   -6.0665    1.0000 </r>
       <r>   -6.0316    1.0000 </r>
       <r>   -6.0313    1.0000 </r>
       <r>   -6.0313    1.0000 </r>
       <r>   -6.0313    1.0000 </r>
       <r>   -6.0312    1.0000 </r>
       <r>   -6.0310    1.0000 </r>
       <r>   -6.0248    1.0000 </r>
       <r>   -6.0246    1.0000 </r>
       <r>   -6.0246    1.0000 </r>
       <r>   -6.0246    1.0000 </r>
       <r>   -6.0246    1.0000 </r>
       <r>   -6.0244    1.0000 </r>
       <r>   -5.9972    1.0000 </r>
       <r>   -5.9970    1.0000 </r>
       <r>   -5.9969    1.0000 </r>
       <r>   -5.9956    1.0000 </r>
       <r>   -5.9953    1.0000 </r>
       <r>   -5.9952    1.0000 </r>
       <r>   -5.9952    1.0000 </r>
       <r>   -5.9952    1.0000 </r>
       <r>   -5.9949    1.0000 </r>
       <r>   -5.9904    1.0000 </r>
       <r>   -5.9902    1.0000 </r>
       <r>   -5.9902    1.0000 </r>
       <r>   -5.9902    1.0000 </r>
       <r>   -5.9902    1.0000 </r>
       <r>   -5.9900    1.0000 </r>
       <r>   -5.9329    1.0000 </r>
       <r>   -5.9329    1.0000 </r>
       <r>   -5.9328    1.0000 </r>
       <r>   -5.9328    1.0000 </r>
       <r>   -5.9328    1.0000 </r>
       <r>   -5.9328    1.0000 </r>
       <r>   -5.9141    1.0000 </r>
       <r>   -5.9140    1.0000 </r>
       <r>   -5.9140    1.0000 </r>
       <r>   -5.9140    1.0000 </r>
       <r>   -5.9139    1.0000 </r>
       <r>   -5.9139    1.0000 </r>
       <r>   -5.9137    1.0000 </r>
       <r>   -5.9137    1.0000 </r>
       <r>   -5.9136    1.0000 </r>
       <r>   -5.9136    1.0000 </r>
       <r>   -5.9136    1.0000 </r>
       <r>   -5.9135    1.0000 </r>
       <r>   -5.9129    1.0000 </r>
       <r>   -5.9128    1.0000 </r>
       <r>   -5.9128    1.0000 </r>
       <r>   -5.9128    1.0000 </r>
       <r>   -5.9127    1.0000 </r>
       <r>   -5.9127    1.0000 </r>
       <r>   -5.9125    1.0000 </r>
       <r>   -5.9125    1.0000 </r>
       <r>   -5.9124    1.0000 </r>
       <r>   -5.9124    1.0000 </r>
       <r>   -5.9124    1.0000 </r>
       <r>   -5.9124    1.0000 </r>
       <r>   -5.9066    1.0000 </r>
       <r>   -5.9066    1.0000 </r>
       <r>   -5.9060    1.0000 </r>
       <r>   -5.9059    1.0000 </r>
       <r>   -5.9058    1.0000 </r>
       <r>   -5.9058    1.0000 </r>
       <r>   -5.9057    1.0000 </r>
       <r>   -5.9056    1.0000 </r>
       <r>   -5.8993    1.0000 </r>
       <r>   -5.8992    1.0000 </r>
       <r>   -5.8992    1.0000 </r>
       <r>   -5.8992    1.0000 </r>
       <r>   -5.8989    1.0000 </r>
       <r>   -5.8989    1.0000 </r>
       <r>   -5.8989    1.0000 </r>
       <r>   -5.8988    1.0000 </r>
       <r>   -5.8934    1.0000 </r>
       <r>   -5.8933    1.0000 </r>
       <r>   -5.8932    1.0000 </r>
       <r>   -5.8932    1.0000 </r>
       <r>   -5.8932    1.0000 </r>
       <r>   -5.8931    1.0000 </r>
       <r>   -5.8793    1.0000 </r>
       <r>   -5.8792    1.0000 </r>
       <r>   -5.8791    1.0000 </r>
       <r>   -5.8764    1.0000 </r>
       <r>   -5.8763    1.0000 </r>
       <r>   -5.8763    1.0000 </r>
       <r>   -5.8763    1.0000 </r>
       <r>   -5.8762    1.0000 </r>
       <r>   -5.8761    1.0000 </r>
       <r>   -5.6498    1.0000 </r>
       <r>   -5.6496    1.0000 </r>
       <r>   -5.6494    1.0000 </r>
       <r>   -5.6494    1.0000 </r>
       <r>   -5.6494    1.0000 </r>
       <r>   -5.6493    1.0000 </r>
       <r>   -5.6493    1.0000 </r>
       <r>   -5.6493    1.0000 </r>
       <r>   -5.6493    1.0000 </r>
       <r>   -5.6493    1.0000 </r>
       <r>   -5.6491    1.0000 </r>
       <r>   -5.6489    1.0000 </r>
       <r>   -5.5851    1.0000 </r>
       <r>   -5.5850    1.0000 </r>
       <r>   -5.5850    1.0000 </r>
       <r>   -5.5850    1.0000 </r>
       <r>   -5.4584    1.0000 </r>
       <r>   -5.4584    1.0000 </r>
       <r>   -5.4584    1.0000 </r>
       <r>   -5.3876    1.0000 </r>
       <r>   -5.3876    1.0000 </r>
       <r>   -5.3876    1.0000 </r>
       <r>   -5.3876    1.0000 </r>
       <r>   -5.3876    1.0000 </r>
       <r>   -5.3876    1.0000 </r>
       <r>   -2.2034    1.0000 </r>
       <r>   -2.2029    1.0000 </r>
       <r>   -2.2027    1.0000 </r>
       <r>   -2.2022    1.0000 </r>
       <r>   -2.1171    1.0000 </r>
       <r>   -2.1164    1.0000 </r>
       <r>   -2.1157    1.0000 </r>
       <r>   -1.9977    1.0000 </r>
       <r>   -1.9963    1.0000 </r>
       <r>   -1.9962    1.0000 </r>
       <r>   -1.9962    1.0000 </r>
       <r>   -1.9961    1.0000 </r>
       <r>   -1.9947    1.0000 </r>
       <r>   -1.5571    1.0000 </r>
       <r>   -1.5557    1.0000 </r>
       <r>   -1.5551    1.0000 </r>
       <r>   -1.5551    1.0000 </r>
       <r>   -1.5550    1.0000 </r>
       <r>   -1.5550    1.0000 </r>
       <r>   -1.5550    1.0000 </r>
       <r>   -1.5549    1.0000 </r>
       <r>   -1.5548    1.0000 </r>
       <r>   -1.5548    1.0000 </r>
       <r>   -1.5542    1.0000 </r>
       <r>   -1.5528    1.0000 </r>
       <r>   -0.5860    1.0000 </r>
       <r>   -0.5853    1.0000 </r>
       <r>   -0.5851    1.0000 </r>
       <r>   -0.5851    1.0000 </r>
       <r>   -0.5848    1.0000 </r>
       <r>   -0.5841    1.0000 </r>
       <r>   -0.1655    1.0000 </r>
       <r>   -0.1654    1.0000 </r>
       <r>   -0.1653    1.0000 </r>
       <r>   -0.1653    1.0000 </r>
       <r>   -0.1653    1.0000 </r>
       <r>   -0.1651    1.0000 </r>
       <r>   -0.0306    1.0000 </r>
       <r>   -0.0299    1.0000 </r>
       <r>   -0.0296    1.0000 </r>
       <r>   -0.0296    1.0000 </r>
       <r>   -0.0293    1.0000 </r>
       <r>   -0.0287    1.0000 </r>
       <r>    0.0054    1.0000 </r>
       <r>    0.0055    1.0000 </r>
       <r>    0.0057    1.0000 </r>
       <r>    0.0065    1.0000 </r>
       <r>    0.0066    1.0000 </r>
       <r>    0.0066    1.0000 </r>
       <r>    0.0066    1.0000 </r>
       <r>    0.0066    1.0000 </r>
       <r>    0.0067    1.0000 </r>
       <r>    0.0076    1.0000 </r>
       <r>    0.0077    1.0000 </r>
       <r>    0.0077    1.0000 </r>
       <r>    0.2732    1.0000 </r>
       <r>    0.2734    1.0000 </r>
       <r>    0.2735    1.0000 </r>
       <r>    0.2735    1.0000 </r>
       <r>    0.2735    1.0000 </r>
       <r>    0.2737    1.0000 </r>
       <r>    1.0026    1.0000 </r>
       <r>    1.0033    1.0000 </r>
       <r>    1.0040    1.0000 </r>
       <r>    1.0041    1.0000 </r>
       <r>    1.0041    1.0000 </r>
       <r>    1.0041    1.0000 </r>
       <r>    1.0041    1.0000 </r>
       <r>    1.0041    1.0000 </r>
       <r>    1.0042    1.0000 </r>
       <r>    1.0042    1.0000 </r>
       <r>    1.0049    1.0000 </r>
       <r>    1.0056    1.0000 </r>
       <r>    1.2626    1.0000 </r>
       <r>    1.2626    1.0000 </r>
       <r>    1.2634    1.0000 </r>
       <r>    1.2636    1.0000 </r>
       <r>    1.2636    1.0000 </r>
       <r>    1.2636    1.0000 </r>
       <r>    1.2637    1.0000 </r>
       <r>    1.2637    1.0000 </r>
       <r>    1.2637    1.0000 </r>
       <r>    1.2639    1.0000 </r>
       <r>    1.2647    1.0000 </r>
       <r>    1.2647    1.0000 </r>
       <r>    1.2916    1.0000 </r>
       <r>    1.2918    1.0000 </r>
       <r>    1.2923    1.0000 </r>
       <r>    1.2923    1.0000 </r>
       <r>    1.2923    1.0000 </r>
       <r>    1.2923    1.0000 </r>
       <r>    1.2928    1.0000 </r>
       <r>    1.2931    1.0000 </r>
       <r>    2.0132    1.0000 </r>
       <r>    2.0134    1.0000 </r>
       <r>    2.0137    1.0000 </r>
       <r>    2.6675    0.0000 </r>
       <r>    3.7910    0.0000 </r>
       <r>    3.7916    0.0000 </r>
       <r>    3.7919    0.0000 </r>
       <r>    3.7924    0.0000 </r>
       <r>    4.6832    0.0000 </r>
       <r>    4.6843    0.0000 </r>
       <r>    4.6854    0.0000 </r>
       <r>    4.7017    0.0000 </r>
       <r>    4.7017    0.0000 </r>
       <r>    4.7017    0.0000 </r>
       <r>    4.8850    0.0000 </r>
       <r>    4.8870    0.0000 </r>
       <r>    4.8872    0.0000 </r>
       <r>    4.8872    0.0000 </r>
       <r>    4.8873    0.0000 </r>
       <r>    4.8893    0.0000 </r>
       <r>    5.0697    0.0000 </r>
       <r>    5.0712    0.0000 </r>
       <r>    5.0726    0.0000 </r>
       <r>    5.0726    0.0000 </r>
       <r>    5.0726    0.0000 </r>
       <r>    5.0726    0.0000 </r>
       <r>    5.0727    0.0000 </r>
       <r>    5.0728    0.0000 </r>
       <r>    5.0728    0.0000 </r>
       <r>    5.0728    0.0000 </r>
       <r>    5.0741    0.0000 </r>
       <r>    5.0758    0.0000 </r>
       <r>    5.3755    0.0000 </r>
       <r>    5.3759    0.0000 </r>
       <r>    5.3762    0.0000 </r>
       <r>    5.3762    0.0000 </r>
       <r>    5.3765    0.0000 </r>
       <r>    5.3769    0.0000 </r>
       <r>    6.1309    0.0000 </r>
       <r>    6.1333    0.0000 </r>
       <r>    6.1334    0.0000 </r>
       <r>    6.1334    0.0000 </r>
       <r>    6.1335    0.0000 </r>
       <r>    6.1359    0.0000 </r>
       <r>    6.6376    0.0000 </r>
       <r>    6.6378    0.0000 </r>
       <r>    6.6380    0.0000 </r>
       <r>    6.7051    0.0000 </r>
       <r>    6.7060    0.0000 </r>
       <r>    6.7063    0.0000 </r>
       <r>    6.7063    0.0000 </r>
       <r>    6.7066    0.0000 </r>
       <r>    6.7075    0.0000 </r>
       <r>    7.2093    0.0000 </r>
       <r>    7.2108    0.0000 </r>
       <r>    7.2124    0.0000 </r>
       <r>    7.2130    0.0000 </r>
       <r>    7.2132    0.0000 </r>
       <r>    7.2133    0.0000 </r>
       <r>    7.2133    0.0000 </r>
       <r>    7.2134    0.0000 </r>
       <r>    7.2134    0.0000 </r>
       <r>    7.2135    0.0000 </r>
       <r>    7.2135    0.0000 </r>
       <r>    7.2136    0.0000 </r>
       <r>    7.2136    0.0000 </r>
       <r>    7.2137    0.0000 </r>
       <r>    7.2138    0.0000 </r>
       <r>    7.2138    0.0000 </r>
       <r>    7.2140    0.0000 </r>
       <r>    7.2144    0.0000 </r>
       <r>    7.2162    0.0000 </r>
       <r>    7.2176    0.0000 </r>
       <r>    7.5299    0.0000 </r>
       <r>    7.5302    0.0000 </r>
       <r>    7.5302    0.0000 </r>
       <r>    7.5303    0.0000 </r>
       <r>    7.5303    0.0000 </r>
       <r>    7.5307    0.0000 </r>
       <r>    7.6120    0.0000 </r>
       <r>    7.6128    0.0000 </r>
       <r>    7.6138    0.0000 </r>
       <r>    7.6141    0.0000 </r>
       <r>    7.6142    0.0000 </r>
       <r>    7.6142    0.0000 </r>
       <r>    7.6142    0.0000 </r>
       <r>    7.6143    0.0000 </r>
       <r>    7.6144    0.0000 </r>
       <r>    7.6146    0.0000 </r>
       <r>    7.6157    0.0000 </r>
       <r>    7.6165    0.0000 </r>
       <r>    7.8331    0.0000 </r>
       <r>    7.8335    0.0000 </r>
       <r>    7.8345    0.0000 </r>
       <r>    7.8348    0.0000 </r>
       <r>    7.8349    0.0000 </r>
       <r>    7.8351    0.0000 </r>
       <r>    7.8354    0.0000 </r>
       <r>    7.8364    0.0000 </r>
      </set>
      <set comment="kpoint 2">
       <r>   -8.9211    1.0000 </r>
       <r>   -8.8322    1.0000 </r>
       <r>   -8.6955    1.0000 </r>
       <r>   -8.6955    1.0000 </r>
       <r>   -8.6954    1.0000 </r>
       <r>   -8.6954    1.0000 </r>
       <r>   -8.6518    1.0000 </r>
       <r>   -8.6517    1.0000 </r>
       <r>   -8.6517    1.0000 </r>
       <r>   -8.6517    1.0000 </r>
       <r>   -8.5938    1.0000 </r>
       <r>   -8.5930    1.0000 </r>
       <r>   -8.5930    1.0000 </r>
       <r>   -8.5928    1.0000 </r>
       <r>   -8.5927    1.0000 </r>
       <r>   -8.5916    1.0000 </r>
       <r>   -8.5915    1.0000 </r>
       <r>   -8.5913    1.0000 </r>
       <r>   -8.5913    1.0000 </r>
       <r>   -8.5367    1.0000 </r>
       <r>   -8.5367    1.0000 </r>
       <r>   -8.5367    1.0000 </r>
       <r>   -8.5366    1.0000 </r>
       <r>   -8.5101    1.0000 </r>
       <r>   -8.4964    1.0000 </r>
       <r>   -8.4963    1.0000 </r>
       <r>   -8.4963    1.0000 </r>
       <r>   -8.4963    1.0000 </r>
       <r>   -8.4817    1.0000 </r>
       <r>   -8.4814    1.0000 </r>
       <r>   -8.4807    1.0000 </r>
       <r>   -8.4804    1.0000 </r>
       <r>   -6.1324    1.0000 </r>
       <r>   -6.1321    1.0000 </r>
       <r>   -6.1210    1.0000 </r>
       <r>   -6.1074    1.0000 </r>
       <r>   -6.1071    1.0000 </r>
       <r>   -6.0832    1.0000 </r>
       <r>   -6.0831    1.0000 </r>
       <r>   -6.0831    1.0000 </r>
       <r>   -6.0830    1.0000 </r>
       <r>   -6.0812    1.0000 </r>
       <r>   -6.0809    1.0000 </r>
       <r>   -6.0807    1.0000 </r>
       <r>   -6.0807    1.0000 </r>
       <r>   -6.0806    1.0000 </r>
       <r>   -6.0806    1.0000 </r>
       <r>   -6.0804    1.0000 </r>
       <r>   -6.0804    1.0000 </r>
       <r>   -6.0804    1.0000 </r>
       <r>   -6.0804    1.0000 </r>
       <r>   -6.0802    1.0000 </r>
       <r>   -6.0802    1.0000 </r>
       <r>   -6.0740    1.0000 </r>
       <r>   -6.0736    1.0000 </r>
       <r>   -6.0733    1.0000 </r>
       <r>   -6.0732    1.0000 </r>
       <r>   -6.0730    1.0000 </r>
       <r>   -6.0727    1.0000 </r>
       <r>   -6.0727    1.0000 </r>
       <r>   -6.0726    1.0000 </r>
       <r>   -6.0726    1.0000 </r>
       <r>   -6.0725    1.0000 </r>
       <r>   -6.0724    1.0000 </r>
       <r>   -6.0722    1.0000 </r>
       <r>   -6.0722    1.0000 </r>
       <r>   -6.0721    1.0000 </r>
       <r>   -6.0718    1.0000 </r>
       <r>   -6.0717    1.0000 </r>
       <r>   -6.0608    1.0000 </r>
       <r>   -6.0560    1.0000 </r>
       <r>   -6.0557    1.0000 </r>
       <r>   -6.0557    1.0000 </r>
       <r>   -6.0555    1.0000 </r>
       <r>   -6.0472    1.0000 </r>
       <r>   -6.0471    1.0000 </r>
       <r>   -6.0471    1.0000 </r>
       <r>   -6.0469    1.0000 </r>
       <r>   -6.0408    1.0000 </r>
       <r>   -6.0406    1.0000 </r>
       <r>   -6.0406    1.0000 </r>
       <r>   -6.0403    1.0000 </r>
       <r>   -6.0343    1.0000 </r>
       <r>   -6.0341    1.0000 </r>
       <r>   -6.0293    1.0000 </r>
       <r>   -6.0292    1.0000 </r>
       <r>   -6.0292    1.0000 </r>
       <r>   -6.0290    1.0000 </r>
       <r>   -6.0230    1.0000 </r>
       <r>   -6.0230    1.0000 </r>
       <r>   -6.0219    1.0000 </r>
       <r>   -6.0216    1.0000 </r>
       <r>   -6.0125    1.0000 </r>
       <r>   -6.0123    1.0000 </r>
       <r>   -6.0058    1.0000 </r>
       <r>   -6.0056    1.0000 </r>
       <r>   -6.0053    1.0000 </r>
       <r>   -6.0053    1.0000 </r>
       <r>   -5.9924    1.0000 </r>
       <r>   -5.9832    1.0000 </r>
       <r>   -5.9740    1.0000 </r>
       <r>   -5.9738    1.0000 </r>
       <r>   -5.9651    1.0000 </r>
       <r>   -5.9650    1.0000 </r>
       <r>   -5.9650    1.0000 </r>
       <r>   -5.9650    1.0000 </r>
       <r>   -5.9490    1.0000 </r>
       <r>   -5.9490    1.0000 </r>
       <r>   -5.9320    1.0000 </r>
       <r>   -5.9320    1.0000 </r>
       <r>   -5.9320    1.0000 </r>
       <r>   -5.9319    1.0000 </r>
       <r>   -5.9312    1.0000 </r>
       <r>   -5.9312    1.0000 </r>
       <r>   -5.9312    1.0000 </r>
       <r>   -5.9311    1.0000 </r>
       <r>   -5.9241    1.0000 </r>
       <r>   -5.9240    1.0000 </r>
       <r>   -5.9240    1.0000 </r>
       <r>   -5.9239    1.0000 </r>
       <r>   -5.9139    1.0000 </r>
       <r>   -5.9101    1.0000 </r>
       <r>   -5.9101    1.0000 </r>
       <r>   -5.9097    1.0000 </r>
       <r>   -5.9097    1.0000 </r>
       <r>   -5.9097    1.0000 </r>
       <r>   -5.9086    1.0000 </r>
       <r>   -5.9085    1.0000 </r>
       <r>   -5.9082    1.0000 </r>
       <r>   -5.9082    1.0000 </r>
       <r>   -5.9059    1.0000 </r>
       <r>   -5.9058    1.0000 </r>
       <r>   -5.9058    1.0000 </r>
       <r>   -5.9058    1.0000 </r>
       <r>   -5.9053    1.0000 </r>
       <r>   -5.9052    1.0000 </r>
       <r>   -5.9051    1.0000 </r>
       <r>   -5.9051    1.0000 </r>
       <r>   -5.9048    1.0000 </r>
       <r>   -5.9026    1.0000 </r>
       <r>   -5.9026    1.0000 </r>
       <r>   -5.9025    1.0000 </r>
       <r>   -5.9024    1.0000 </r>
       <r>   -5.9024    1.0000 </r>
       <r>   -5.9023    1.0000 </r>
       <r>   -5.9023    1.0000 </r>
       <r>   -5.9022    1.0000 </r>
       <r>   -5.9020    1.0000 </r>
       <r>   -5.9019    1.0000 </r>
       <r>   -5.9016    1.0000 </r>
       <r>   -5.9016    1.0000 </r>
       <r>   -5.8999    1.0000 </r>
       <r>   -5.8952    1.0000 </r>
       <r>   -5.8951    1.0000 </r>
       <r>   -5.8951    1.0000 </r>
       <r>   -5.8951    1.0000 </r>
       <r>   -5.8950    1.0000 </r>
       <r>   -5.8949    1.0000 </r>
       <r>   -5.8861    1.0000 </r>
       <r>   -5.8836    1.0000 </r>
       <r>   -5.8834    1.0000 </r>
       <r>   -5.8810    1.0000 </r>
       <r>   -5.8538    1.0000 </r>
       <r>   -5.8537    1.0000 </r>
       <r>   -5.8537    1.0000 </r>
       <r>   -5.8535    1.0000 </r>
       <r>   -5.7739    1.0000 </r>
       <r>   -5.7738    1.0000 </r>
       <r>   -5.7738    1.0000 </r>
       <r>   -5.7736    1.0000 </r>
       <r>   -5.7221    1.0000 </r>
       <r>   -5.6340    1.0000 </r>
       <r>   -5.6340    1.0000 </r>
       <r>   -5.6340    1.0000 </r>
       <r>   -5.6339    1.0000 </r>
       <r>   -5.6020    1.0000 </r>
       <r>   -5.6020    1.0000 </r>
       <r>   -5.6019    1.0000 </r>
       <r>   -5.6019    1.0000 </r>
       <r>   -5.5423    1.0000 </r>
       <r>   -5.5191    1.0000 </r>
       <r>   -5.5190    1.0000 </r>
       <r>   -5.5190    1.0000 </r>
       <r>   -5.5189    1.0000 </r>
       <r>   -5.4400    1.0000 </r>
       <r>   -5.4400    1.0000 </r>
       <r>   -5.4227    1.0000 </r>
       <r>   -5.4227    1.0000 </r>
       <r>   -5.4227    1.0000 </r>
       <r>   -5.4226    1.0000 </r>
       <r>   -5.4047    1.0000 </r>
       <r>   -5.4047    1.0000 </r>
       <r>   -2.0901    1.0000 </r>
       <r>   -2.0886    1.0000 </r>
       <r>   -2.0781    1.0000 </r>
       <r>   -2.0776    1.0000 </r>
       <r>   -2.0774    1.0000 </r>
       <r>   -2.0769    1.0000 </r>
       <r>   -2.0303    1.0000 </r>
       <r>   -2.0287    1.0000 </r>
       <r>   -1.9593    1.0000 </r>
       <r>   -1.9585    1.0000 </r>
       <r>   -1.9585    1.0000 </r>
       <r>   -1.9578    1.0000 </r>
       <r>   -1.9046    1.0000 </r>
       <r>   -1.8223    1.0000 </r>
       <r>   -1.8216    1.0000 </r>
       <r>   -1.8216    1.0000 </r>
       <r>   -1.8209    1.0000 </r>
       <r>   -1.7691    1.0000 </r>
       <r>   -1.7684    1.0000 </r>
       <r>   -1.7683    1.0000 </r>
       <r>   -1.7675    1.0000 </r>
       <r>   -1.3495    1.0000 </r>
       <r>   -1.1783    1.0000 </r>
       <r>   -1.1776    1.0000 </r>
       <r>   -1.1776    1.0000 </r>
       <r>   -1.1769    1.0000 </r>
       <r>   -0.7827    1.0000 </r>
       <r>   -0.7819    1.0000 </r>
       <r>   -0.7819    1.0000 </r>
       <r>   -0.7810    1.0000 </r>
       <r>   -0.3175    1.0000 </r>
       <r>   -0.3174    1.0000 </r>
       <r>   -0.3174    1.0000 </r>
       <r>   -0.3174    1.0000 </r>
       <r>   -0.2640    1.0000 </r>
       <r>   -0.2639    1.0000 </r>
       <r>   -0.2639    1.0000 </r>
       <r>   -0.2638    1.0000 </r>
       <r>   -0.0600    1.0000 </r>
       <r>   -0.0598    1.0000 </r>
       <r>    0.0403    1.0000 </r>
       <r>    0.0403    1.0000 </r>
       <r>    0.1582    1.0000 </r>
       <r>    0.1584    1.0000 </r>
       <r>    0.1912    1.0000 </r>
       <r>    0.1912    1.0000 </r>
       <r>    0.3001    1.0000 </r>
       <r>    0.3404    1.0000 </r>
       <r>    0.3408    1.0000 </r>
       <r>    0.3413    1.0000 </r>
       <r>    0.3416    1.0000 </r>
       <r>    0.3501    1.0000 </r>
       <r>    0.3503    1.0000 </r>
       <r>    0.3504    1.0000 </r>
       <r>    0.3505    1.0000 </r>
       <r>    0.3623    1.0000 </r>
       <r>    0.3626    1.0000 </r>
       <r>    0.4117    1.0000 </r>
       <r>    0.4121    1.0000 </r>
       <r>    0.4121    1.0000 </r>
       <r>    0.4124    1.0000 </r>
       <r>    0.6177    1.0000 </r>
       <r>    0.6180    1.0000 </r>
       <r>    0.8179    1.0000 </r>
       <r>    0.8184    1.0000 </r>
       <r>    0.8184    1.0000 </r>
       <r>    0.8189    1.0000 </r>
       <r>    0.8751    1.0000 </r>
       <r>    0.8753    1.0000 </r>
       <r>    0.8753    1.0000 </r>
       <r>    0.8756    1.0000 </r>
       <r>    0.9558    1.0000 </r>
       <r>    0.9563    1.0000 </r>
       <r>    0.9564    1.0000 </r>
       <r>    0.9569    1.0000 </r>
       <r>    1.1428    1.0000 </r>
       <r>    1.1429    1.0000 </r>
       <r>    1.1429    1.0000 </r>
       <r>    1.1429    1.0000 </r>
       <r>    1.2533    1.0000 </r>
       <r>    1.2701    1.0000 </r>
       <r>    1.2707    1.0000 </r>
       <r>    1.2707    1.0000 </r>
       <r>    1.2713    1.0000 </r>
       <r>    1.2845    1.0000 </r>
       <r>    1.2850    1.0000 </r>
       <r>    1.2851    1.0000 </r>
       <r>    1.2857    1.0000 </r>
       <r>    1.3289    1.0000 </r>
       <r>    1.3291    1.0000 </r>
       <r>    1.3291    1.0000 </r>
       <r>    1.3292    1.0000 </r>
       <r>    1.4535    1.0000 </r>
       <r>    1.4539    1.0000 </r>
       <r>    1.8476    1.0000 </r>
       <r>    1.8481    1.0000 </r>
       <r>    3.4480    0.0000 </r>
       <r>    4.1412    0.0000 </r>
       <r>    4.1416    0.0000 </r>
       <r>    4.1418    0.0000 </r>
       <r>    4.1423    0.0000 </r>
       <r>    4.3820    0.0000 </r>
       <r>    4.6480    0.0000 </r>
       <r>    4.7680    0.0000 </r>
       <r>    4.7683    0.0000 </r>
       <r>    4.7685    0.0000 </r>
       <r>    4.7688    0.0000 </r>
       <r>    4.7703    0.0000 </r>
       <r>    4.8989    0.0000 </r>
       <r>    4.9682    0.0000 </r>
       <r>    4.9707    0.0000 </r>
       <r>    4.9722    0.0000 </r>
       <r>    4.9734    0.0000 </r>
       <r>    4.9734    0.0000 </r>
       <r>    4.9756    0.0000 </r>
       <r>    5.0132    0.0000 </r>
       <r>    5.0132    0.0000 </r>
       <r>    5.0287    0.0000 </r>
       <r>    5.0301    0.0000 </r>
       <r>    5.0301    0.0000 </r>
       <r>    5.0316    0.0000 </r>
       <r>    5.1764    0.0000 </r>
       <r>    5.3426    0.0000 </r>
       <r>    5.3438    0.0000 </r>
       <r>    5.3438    0.0000 </r>
       <r>    5.3451    0.0000 </r>
       <r>    5.6511    0.0000 </r>
       <r>    5.6533    0.0000 </r>
       <r>    5.6649    0.0000 </r>
       <r>    5.6653    0.0000 </r>
       <r>    5.6654    0.0000 </r>
       <r>    5.6658    0.0000 </r>
       <r>    5.7784    0.0000 </r>
       <r>    5.8197    0.0000 </r>
       <r>    5.8209    0.0000 </r>
       <r>    5.8209    0.0000 </r>
       <r>    5.8221    0.0000 </r>
       <r>    5.8379    0.0000 </r>
       <r>    5.8379    0.0000 </r>
       <r>    6.3301    0.0000 </r>
       <r>    6.5075    0.0000 </r>
       <r>    6.5078    0.0000 </r>
       <r>    6.5078    0.0000 </r>
       <r>    6.5080    0.0000 </r>
       <r>    6.8548    0.0000 </r>
       <r>    6.8552    0.0000 </r>
       <r>    6.8552    0.0000 </r>
       <r>    6.8556    0.0000 </r>
       <r>    6.8878    0.0000 </r>
       <r>    6.8882    0.0000 </r>
       <r>    6.9857    0.0000 </r>
       <r>    6.9860    0.0000 </r>
       <r>    6.9866    0.0000 </r>
       <r>    6.9869    0.0000 </r>
       <r>    7.0746    0.0000 </r>
       <r>    7.0750    0.0000 </r>
       <r>    7.0758    0.0000 </r>
       <r>    7.0762    0.0000 </r>
       <r>    7.0837    0.0000 </r>
       <r>    7.0841    0.0000 </r>
       <r>    7.0843    0.0000 </r>
       <r>    7.0846    0.0000 </r>
       <r>    7.3347    0.0000 </r>
       <r>    7.3351    0.0000 </r>
       <r>    7.3356    0.0000 </r>
       <r>    7.3360    0.0000 </r>
       <r>    7.3467    0.0000 </r>
       <r>    7.3469    0.0000 </r>
       <r>    7.3470    0.0000 </r>
       <r>    7.3472    0.0000 </r>
       <r>    7.4164    0.0000 </r>
       <r>    7.4166    0.0000 </r>
       <r>    7.4166    0.0000 </r>
       <r>    7.4169    0.0000 </r>
       <r>    7.4521    0.0000 </r>
       <r>    7.4524    0.0000 </r>
       <r>    7.4524    0.0000 </r>
       <r>    7.4528    0.0000 </r>
       <r>    7.5366    0.0000 </r>
       <r>    7.5370    0.0000 </r>
       <r>    7.6341    0.0000 </r>
       <r>    7.6344    0.0000 </r>
       <r>    7.6351    0.0000 </r>
       <r>    7.6353    0.0000 </r>
       <r>    7.7963    0.0000 </r>
       <r>    7.7965    0.0000 </r>
       <r>    7.7965    0.0000 </r>
       <r>    7.7966    0.0000 </r>
       <r>    8.0950    0.0000 </r>
       <r>    8.0953    0.0000 </r>
       <r>    8.0953    0.0000 </r>
       <r>    8.0956    0.0000 </r>
      </set>
      <set comment="kpoint 3">
       <r>   -8.9211    1.0000 </r>
       <r>   -8.8322    1.0000 </r>
       <r>   -8.6956    1.0000 </r>
       <r>   -8.6955    1.0000 </r>
       <r>   -8.6954    1.0000 </r>
       <r>   -8.6953    1.0000 </r>
       <r>   -8.6519    1.0000 </r>
       <r>   -8.6518    1.0000 </r>
       <r>   -8.6517    1.0000 </r>
       <r>   -8.6516    1.0000 </r>
       <r>   -8.5937    1.0000 </r>
       <r>   -8.5929    1.0000 </r>
       <r>   -8.5927    1.0000 </r>
       <r>   -8.5927    1.0000 </r>
       <r>   -8.5926    1.0000 </r>
       <r>   -8.5916    1.0000 </r>
       <r>   -8.5915    1.0000 </r>
       <r>   -8.5915    1.0000 </r>
       <r>   -8.5914    1.0000 </r>
       <r>   -8.5368    1.0000 </r>
       <r>   -8.5367    1.0000 </r>
       <r>   -8.5366    1.0000 </r>
       <r>   -8.5365    1.0000 </r>
       <r>   -8.5102    1.0000 </r>
       <r>   -8.4965    1.0000 </r>
       <r>   -8.4964    1.0000 </r>
       <r>   -8.4963    1.0000 </r>
       <r>   -8.4961    1.0000 </r>
       <r>   -8.4814    1.0000 </r>
       <r>   -8.4814    1.0000 </r>
       <r>   -8.4807    1.0000 </r>
       <r>   -8.4807    1.0000 </r>
       <r>   -6.1322    1.0000 </r>
       <r>   -6.1322    1.0000 </r>
       <r>   -6.1210    1.0000 </r>
       <r>   -6.1073    1.0000 </r>
       <r>   -6.1072    1.0000 </r>
       <r>   -6.0833    1.0000 </r>
       <r>   -6.0831    1.0000 </r>
       <r>   -6.0831    1.0000 </r>
       <r>   -6.0830    1.0000 </r>
       <r>   -6.0812    1.0000 </r>
       <r>   -6.0809    1.0000 </r>
       <r>   -6.0808    1.0000 </r>
       <r>   -6.0807    1.0000 </r>
       <r>   -6.0806    1.0000 </r>
       <r>   -6.0805    1.0000 </r>
       <r>   -6.0804    1.0000 </r>
       <r>   -6.0804    1.0000 </r>
       <r>   -6.0804    1.0000 </r>
       <r>   -6.0804    1.0000 </r>
       <r>   -6.0804    1.0000 </r>
       <r>   -6.0800    1.0000 </r>
       <r>   -6.0735    1.0000 </r>
       <r>   -6.0735    1.0000 </r>
       <r>   -6.0735    1.0000 </r>
       <r>   -6.0734    1.0000 </r>
       <r>   -6.0729    1.0000 </r>
       <r>   -6.0727    1.0000 </r>
       <r>   -6.0726    1.0000 </r>
       <r>   -6.0726    1.0000 </r>
       <r>   -6.0725    1.0000 </r>
       <r>   -6.0725    1.0000 </r>
       <r>   -6.0725    1.0000 </r>
       <r>   -6.0724    1.0000 </r>
       <r>   -6.0721    1.0000 </r>
       <r>   -6.0720    1.0000 </r>
       <r>   -6.0719    1.0000 </r>
       <r>   -6.0716    1.0000 </r>
       <r>   -6.0608    1.0000 </r>
       <r>   -6.0558    1.0000 </r>
       <r>   -6.0558    1.0000 </r>
       <r>   -6.0557    1.0000 </r>
       <r>   -6.0557    1.0000 </r>
       <r>   -6.0473    1.0000 </r>
       <r>   -6.0471    1.0000 </r>
       <r>   -6.0470    1.0000 </r>
       <r>   -6.0469    1.0000 </r>
       <r>   -6.0406    1.0000 </r>
       <r>   -6.0406    1.0000 </r>
       <r>   -6.0405    1.0000 </r>
       <r>   -6.0405    1.0000 </r>
       <r>   -6.0342    1.0000 </r>
       <r>   -6.0342    1.0000 </r>
       <r>   -6.0293    1.0000 </r>
       <r>   -6.0292    1.0000 </r>
       <r>   -6.0291    1.0000 </r>
       <r>   -6.0290    1.0000 </r>
       <r>   -6.0230    1.0000 </r>
       <r>   -6.0230    1.0000 </r>
       <r>   -6.0217    1.0000 </r>
       <r>   -6.0217    1.0000 </r>
       <r>   -6.0124    1.0000 </r>
       <r>   -6.0124    1.0000 </r>
       <r>   -6.0059    1.0000 </r>
       <r>   -6.0057    1.0000 </r>
       <r>   -6.0053    1.0000 </r>
       <r>   -6.0051    1.0000 </r>
       <r>   -5.9924    1.0000 </r>
       <r>   -5.9832    1.0000 </r>
       <r>   -5.9739    1.0000 </r>
       <r>   -5.9739    1.0000 </r>
       <r>   -5.9653    1.0000 </r>
       <r>   -5.9651    1.0000 </r>
       <r>   -5.9650    1.0000 </r>
       <r>   -5.9648    1.0000 </r>
       <r>   -5.9490    1.0000 </r>
       <r>   -5.9490    1.0000 </r>
       <r>   -5.9322    1.0000 </r>
       <r>   -5.9320    1.0000 </r>
       <r>   -5.9320    1.0000 </r>
       <r>   -5.9317    1.0000 </r>
       <r>   -5.9312    1.0000 </r>
       <r>   -5.9312    1.0000 </r>
       <r>   -5.9312    1.0000 </r>
       <r>   -5.9311    1.0000 </r>
       <r>   -5.9241    1.0000 </r>
       <r>   -5.9240    1.0000 </r>
       <r>   -5.9240    1.0000 </r>
       <r>   -5.9239    1.0000 </r>
       <r>   -5.9139    1.0000 </r>
       <r>   -5.9101    1.0000 </r>
       <r>   -5.9101    1.0000 </r>
       <r>   -5.9097    1.0000 </r>
       <r>   -5.9097    1.0000 </r>
       <r>   -5.9097    1.0000 </r>
       <r>   -5.9086    1.0000 </r>
       <r>   -5.9085    1.0000 </r>
       <r>   -5.9082    1.0000 </r>
       <r>   -5.9082    1.0000 </r>
       <r>   -5.9060    1.0000 </r>
       <r>   -5.9058    1.0000 </r>
       <r>   -5.9058    1.0000 </r>
       <r>   -5.9057    1.0000 </r>
       <r>   -5.9053    1.0000 </r>
       <r>   -5.9052    1.0000 </r>
       <r>   -5.9052    1.0000 </r>
       <r>   -5.9050    1.0000 </r>
       <r>   -5.9048    1.0000 </r>
       <r>   -5.9026    1.0000 </r>
       <r>   -5.9026    1.0000 </r>
       <r>   -5.9025    1.0000 </r>
       <r>   -5.9024    1.0000 </r>
       <r>   -5.9024    1.0000 </r>
       <r>   -5.9023    1.0000 </r>
       <r>   -5.9022    1.0000 </r>
       <r>   -5.9022    1.0000 </r>
       <r>   -5.9019    1.0000 </r>
       <r>   -5.9019    1.0000 </r>
       <r>   -5.9016    1.0000 </r>
       <r>   -5.9016    1.0000 </r>
       <r>   -5.8999    1.0000 </r>
       <r>   -5.8953    1.0000 </r>
       <r>   -5.8952    1.0000 </r>
       <r>   -5.8951    1.0000 </r>
       <r>   -5.8950    1.0000 </r>
       <r>   -5.8950    1.0000 </r>
       <r>   -5.8949    1.0000 </r>
       <r>   -5.8861    1.0000 </r>
       <r>   -5.8835    1.0000 </r>
       <r>   -5.8835    1.0000 </r>
       <r>   -5.8810    1.0000 </r>
       <r>   -5.8538    1.0000 </r>
       <r>   -5.8537    1.0000 </r>
       <r>   -5.8536    1.0000 </r>
       <r>   -5.8535    1.0000 </r>
       <r>   -5.7739    1.0000 </r>
       <r>   -5.7738    1.0000 </r>
       <r>   -5.7737    1.0000 </r>
       <r>   -5.7736    1.0000 </r>
       <r>   -5.7221    1.0000 </r>
       <r>   -5.6341    1.0000 </r>
       <r>   -5.6340    1.0000 </r>
       <r>   -5.6339    1.0000 </r>
       <r>   -5.6338    1.0000 </r>
       <r>   -5.6021    1.0000 </r>
       <r>   -5.6020    1.0000 </r>
       <r>   -5.6019    1.0000 </r>
       <r>   -5.6018    1.0000 </r>
       <r>   -5.5423    1.0000 </r>
       <r>   -5.5191    1.0000 </r>
       <r>   -5.5190    1.0000 </r>
       <r>   -5.5190    1.0000 </r>
       <r>   -5.5189    1.0000 </r>
       <r>   -5.4401    1.0000 </r>
       <r>   -5.4400    1.0000 </r>
       <r>   -5.4227    1.0000 </r>
       <r>   -5.4227    1.0000 </r>
       <r>   -5.4227    1.0000 </r>
       <r>   -5.4227    1.0000 </r>
       <r>   -5.4047    1.0000 </r>
       <r>   -5.4047    1.0000 </r>
       <r>   -2.0894    1.0000 </r>
       <r>   -2.0893    1.0000 </r>
       <r>   -2.0781    1.0000 </r>
       <r>   -2.0776    1.0000 </r>
       <r>   -2.0774    1.0000 </r>
       <r>   -2.0769    1.0000 </r>
       <r>   -2.0296    1.0000 </r>
       <r>   -2.0295    1.0000 </r>
       <r>   -1.9596    1.0000 </r>
[...]
      </set>
     </set>
    </set>
   </array>
  </eigenvalues>
  <separator name="orbital magnetization" >
   <v name="MAGDIPOLOUT">      0.00000000      0.00000000      0.00000000</v>
  </separator>
  <dos>
   <i name="efermi">      2.26329553 </i>
   <total>
    <array>
     <dimension dim="1">gridpoints</dimension>
     <dimension dim="2">spin</dimension>
     <field>energy</field>
     <field>total</field>
     <field>integrated</field>
     <set>
      <set comment="spin 1">
       <r>    -9.8061     0.0000     0.0000 </r>
       <r>    -9.7436     0.0000     0.0000 </r>
       <r>    -9.6811     0.0000     0.0000 </r>
       <r>    -9.6185     0.0000     0.0000 </r>
       <r>    -9.5560     0.0000     0.0000 </r>
       <r>    -9.4935     0.0000     0.0000 </r>
       <r>    -9.4310     0.0000     0.0000 </r>
       <r>    -9.3685     0.0000     0.0000 </r>
       <r>    -9.3060     0.0000     0.0000 </r>
       <r>    -9.2434     0.0000     0.0000 </r>
       <r>    -9.1809     0.0000     0.0000 </r>
       <r>    -9.1184     0.0000     0.0000 </r>
       <r>    -9.0559     0.0028     0.0002 </r>
       <r>    -8.9934     0.3237     0.0204 </r>
       <r>    -8.9309     5.4170     0.3591 </r>
       <r>    -8.8684    19.1879     1.5586 </r>
       <r>    -8.8058    35.4835     3.7769 </r>
       <r>    -8.7433    51.9427     7.0241 </r>
       <r>    -8.6808    82.1977    12.1627 </r>
       <r>    -8.6183   136.4092    20.6904 </r>
       <r>    -8.5558   247.2394    36.1467 </r>
       <r>    -8.4933   301.2030    54.9765 </r>
       <r>    -8.4307   134.9680    63.4141 </r>
       <r>    -8.3682     9.3152    63.9964 </r>
       <r>    -8.3057     0.0572    64.0000 </r>
       <r>    -8.2432     0.0000    64.0000 </r>
       <r>    -8.1807     0.0000    64.0000 </r>
       <r>    -8.1182     0.0000    64.0000 </r>
       <r>    -8.0557     0.0000    64.0000 </r>
       <r>    -7.9931     0.0000    64.0000 </r>
       <r>    -7.9306     0.0000    64.0000 </r>
       <r>    -7.8681     0.0000    64.0000 </r>
       <r>    -7.8056     0.0000    64.0000 </r>
       <r>    -7.7431     0.0000    64.0000 </r>
       <r>    -7.6806     0.0000    64.0000 </r>
       <r>    -7.6180     0.0000    64.0000 </r>
       <r>    -7.5555     0.0000    64.0000 </r>
       <r>    -7.4930     0.0000    64.0000 </r>
       <r>    -7.4305     0.0000    64.0000 </r>
       <r>    -7.3680     0.0000    64.0000 </r>
       <r>    -7.3055     0.0000    64.0000 </r>
       <r>    -7.2430     0.0000    64.0000 </r>
       <r>    -7.1804     0.0000    64.0000 </r>
       <r>    -7.1179     0.0000    64.0000 </r>
       <r>    -7.0554     0.0000    64.0000 </r>
       <r>    -6.9929     0.0000    64.0000 </r>
       <r>    -6.9304     0.0000    64.0000 </r>
       <r>    -6.8679     0.0000    64.0000 </r>
       <r>    -6.8053     0.0000    64.0000 </r>
       <r>    -6.7428     0.0000    64.0000 </r>
       <r>    -6.6803     0.0000    64.0000 </r>
       <r>    -6.6178     0.0000    64.0000 </r>
       <r>    -6.5553     0.0000    64.0000 </r>
       <r>    -6.4928     0.0000    64.0000 </r>
       <r>    -6.4303     0.0000    64.0000 </r>
       <r>    -6.3677     0.0000    64.0000 </r>
       <r>    -6.3052     0.0000    64.0000 </r>
       <r>    -6.2427     0.0605    64.0038 </r>
       <r>    -6.1802    10.2922    64.6472 </r>
       <r>    -6.1177   219.6015    78.3757 </r>
       <r>    -6.0552   916.3160   135.6596 </r>
       <r>    -5.9926   926.4983   193.5800 </r>
       <r>    -5.9301   809.7337   244.2009 </r>
       <r>    -5.8676  1100.5184   313.0002 </r>
       <r>    -5.8051   312.0310   332.5070 </r>
       <r>    -5.7426    73.0430   337.0733 </r>
       <r>    -5.6801    77.4983   341.9181 </r>
       <r>    -5.6176   105.4716   348.5117 </r>
       <r>    -5.5550   132.4775   356.7936 </r>
       <r>    -5.4925   164.0830   367.0513 </r>
       <r>    -5.4300   173.5050   377.8981 </r>
       <r>    -5.3675    87.3457   383.3585 </r>
       <r>    -5.3050    10.1081   383.9904 </r>
       <r>    -5.2425     0.1527   384.0000 </r>
       <r>    -5.1799     0.0002   384.0000 </r>
       <r>    -5.1174     0.0000   384.0000 </r>
       <r>    -5.0549     0.0000   384.0000 </r>
       <r>    -4.9924     0.0000   384.0000 </r>
       <r>    -4.9299     0.0000   384.0000 </r>
       <r>    -4.8674     0.0000   384.0000 </r>
       <r>    -4.8049     0.0000   384.0000 </r>
       <r>    -4.7423     0.0000   384.0000 </r>
       <r>    -4.6798     0.0000   384.0000 </r>
       <r>    -4.6173     0.0000   384.0000 </r>
       <r>    -4.5548     0.0000   384.0000 </r>
       <r>    -4.4923     0.0000   384.0000 </r>
       <r>    -4.4298     0.0000   384.0000 </r>
       <r>    -4.3672     0.0000   384.0000 </r>
       <r>    -4.3047     0.0000   384.0000 </r>
       <r>    -4.2422     0.0000   384.0000 </r>
       <r>    -4.1797     0.0000   384.0000 </r>
       <r>    -4.1172     0.0000   384.0000 </r>
       <r>    -4.0547     0.0000   384.0000 </r>
       <r>    -3.9922     0.0000   384.0000 </r>
       <r>    -3.9296     0.0000   384.0000 </r>
       <r>    -3.8671     0.0000   384.0000 </r>
       <r>    -3.8046     0.0000   384.0000 </r>
       <r>    -3.7421     0.0000   384.0000 </r>
       <r>    -3.6796     0.0000   384.0000 </r>
       <r>    -3.6171     0.0000   384.0000 </r>
       <r>    -3.5545     0.0000   384.0000 </r>
       <r>    -3.4920     0.0000   384.0000 </r>
       <r>    -3.4295     0.0000   384.0000 </r>
       <r>    -3.3670     0.0000   384.0000 </r>
       <r>    -3.3045     0.0000   384.0000 </r>
       <r>    -3.2420     0.0000   384.0000 </r>
       <r>    -3.1795     0.0000   384.0000 </r>
       <r>    -3.1169     0.0000   384.0000 </r>
       <r>    -3.0544     0.0000   384.0000 </r>
       <r>    -2.9919     0.0000   384.0000 </r>
       <r>    -2.9294     0.0000   384.0000 </r>
       <r>    -2.8669     0.0000   384.0000 </r>
       <r>    -2.8044     0.0000   384.0000 </r>
       <r>    -2.7418     0.0000   384.0000 </r>
       <r>    -2.6793     0.0000   384.0000 </r>
       <r>    -2.6168     0.0000   384.0000 </r>
       <r>    -2.5543     0.0000   384.0000 </r>
       <r>    -2.4918     0.0000   384.0000 </r>
       <r>    -2.4293     0.0000   384.0000 </r>
       <r>    -2.3668     0.0000   384.0000 </r>
       <r>    -2.3042     0.0098   384.0006 </r>
       <r>    -2.2417     0.6375   384.0405 </r>
       <r>    -2.1792     4.0946   384.2964 </r>
       <r>    -2.1167    23.2444   385.7496 </r>
       <r>    -2.0542    63.2403   389.7031 </r>
       <r>    -1.9917   116.0117   396.9556 </r>
       <r>    -1.9291   175.7203   407.9408 </r>
       <r>    -1.8666    91.6438   413.6700 </r>
       <r>    -1.8041    55.7346   417.1542 </r>
       <r>    -1.7416    71.7103   421.6372 </r>
       <r>    -1.6791    19.3170   422.8448 </r>
       <r>    -1.6166    17.1481   423.9169 </r>
       <r>    -1.5541    27.6191   425.6435 </r>
       <r>    -1.4915    25.1416   427.2152 </r>
       <r>    -1.4290    41.8418   429.8310 </r>
       <r>    -1.3665    49.5826   432.9307 </r>
       <r>    -1.3040     9.2581   433.5094 </r>
       <r>    -1.2415     1.7341   433.6178 </r>
       <r>    -1.1790    12.7715   434.4163 </r>
       <r>    -1.1164    13.5010   435.2603 </r>
       <r>    -1.0539     3.6302   435.4872 </r>
       <r>    -0.9914    16.9247   436.5453 </r>
       <r>    -0.9289    20.4482   437.8236 </r>
       <r>    -0.8664    15.5729   438.7972 </r>
       <r>    -0.8039     9.0465   439.3627 </r>
       <r>    -0.7414    17.2824   440.4431 </r>
       <r>    -0.6788     4.2106   440.7063 </r>
       <r>    -0.6163     8.2968   441.2250 </r>
       <r>    -0.5538    10.6076   441.8882 </r>
       <r>    -0.4913     2.4051   442.0385 </r>
       <r>    -0.4288     7.9664   442.5365 </r>
       <r>    -0.3663    27.7996   444.2744 </r>
       <r>    -0.3037    52.2210   447.5391 </r>
       <r>    -0.2412    42.1769   450.1758 </r>
       <r>    -0.1787    60.1393   453.9354 </r>
       <r>    -0.1162    67.9077   458.1807 </r>
       <r>    -0.0537    48.9857   461.2430 </r>
       <r>     0.0088    82.9268   466.4272 </r>
       <r>     0.0713    70.1968   470.8156 </r>
       <r>     0.1339    25.5040   472.4100 </r>
       <r>     0.1964    33.2615   474.4894 </r>
       <r>     0.2589    67.8386   478.7303 </r>
       <r>     0.3214    73.9066   483.3506 </r>
       <r>     0.3839    95.7214   489.3347 </r>
       <r>     0.4464    96.6462   495.3766 </r>
       <r>     0.5090    89.9495   500.9998 </r>
       <r>     0.5715    84.1734   506.2619 </r>
       <r>     0.6340    34.6818   508.4301 </r>
       <r>     0.6965    52.0859   511.6863 </r>
       <r>     0.7590    73.8391   516.3023 </r>
       <r>     0.8215    80.3337   521.3244 </r>
       <r>     0.8840   101.6132   527.6768 </r>
       <r>     0.9466    81.0275   532.7423 </r>
       <r>     1.0091    74.1885   537.3802 </r>
       <r>     1.0716    45.6223   540.2323 </r>
       <r>     1.1341    63.7281   544.2163 </r>
       <r>     1.1966    57.6155   547.8182 </r>
       <r>     1.2591    70.3091   552.2136 </r>
       <r>     1.3217   114.0228   559.3418 </r>
       <r>     1.3842    39.3080   561.7991 </r>
       <r>     1.4467    24.2548   563.3154 </r>
       <r>     1.5092    38.9631   565.7512 </r>
       <r>     1.5717    25.2918   567.3323 </r>
       <r>     1.6342    34.2742   569.4750 </r>
       <r>     1.6967    41.5472   572.0723 </r>
       <r>     1.7593    13.5710   572.9207 </r>
       <r>     1.8218    14.9559   573.8557 </r>
       <r>     1.8843    15.0287   574.7952 </r>
       <r>     1.9468     9.8691   575.4122 </r>
       <r>     2.0093     7.1212   575.8574 </r>
       <r>     2.0718     2.1048   575.9890 </r>
       <r>     2.1344     0.1754   575.9999 </r>
       <r>     2.1969     0.0011   576.0000 </r>
       <r>     2.2594     0.0000   576.0000 </r>
       <r>     2.3219     0.0000   576.0000 </r>
       <r>     2.3844     0.0000   576.0000 </r>
       <r>     2.4469     0.0000   576.0000 </r>
       <r>     2.5095     0.0000   576.0000 </r>
       <r>     2.5720     0.0041   576.0003 </r>
       <r>     2.6345     0.2033   576.0130 </r>
       <r>     2.6970     0.7379   576.0591 </r>
       <r>     2.7595     0.2341   576.0737 </r>
       <r>     2.8220     0.0055   576.0741 </r>
       <r>     2.8845     0.0000   576.0741 </r>
       <r>     2.9471     0.0000   576.0741 </r>
       <r>     3.0096     0.0000   576.0741 </r>
       <r>     3.0721     0.0000   576.0741 </r>
       <r>     3.1346     0.0000   576.0741 </r>
       <r>     3.1971     0.0000   576.0741 </r>
       <r>     3.2596     0.0000   576.0741 </r>
       <r>     3.3222     0.0013   576.0742 </r>
       <r>     3.3847     0.2586   576.0903 </r>
       <r>     3.4472     3.2269   576.2921 </r>
       <r>     3.5097     3.3342   576.5005 </r>
       <r>     3.5722     0.2872   576.5184 </r>
       <r>     3.6347     0.1824   576.5299 </r>
       <r>     3.6972     4.5048   576.8115 </r>
       <r>     3.7598    11.9538   577.5588 </r>
       <r>     3.8223    10.1284   578.1919 </r>
       <r>     3.8848     5.6428   578.5447 </r>
       <r>     3.9473     4.9567   578.8546 </r>
       <r>     4.0098     0.5476   578.8888 </r>
       <r>     4.0723     0.7441   578.9353 </r>
       <r>     4.1349    14.4184   579.8367 </r>
       <r>     4.1974    40.0808   582.3424 </r>
       <r>     4.2599    45.0605   585.1593 </r>
       <r>     4.3224    14.2163   586.0481 </r>
       <r>     4.3849    15.6141   587.0242 </r>
       <r>     4.4474    17.4551   588.1154 </r>
       <r>     4.5099     2.2681   588.2572 </r>
       <r>     4.5725    11.1602   588.9549 </r>
       <r>     4.6350    36.7242   591.2507 </r>
       <r>     4.6975    55.4413   594.7167 </r>
       <r>     4.7600    52.1824   597.9789 </r>
       <r>     4.8225    55.0593   601.4209 </r>
       <r>     4.8850    37.4040   603.7593 </r>
       <r>     4.9476    45.9227   606.6301 </r>
       <r>     5.0101    91.4585   612.3477 </r>
       <r>     5.0726    92.8511   618.1523 </r>
       <r>     5.1351    90.6548   623.8197 </r>
       <r>     5.1976   101.7890   630.1830 </r>
       <r>     5.2601    50.3522   633.3308 </r>
       <r>     5.3226    12.0397   634.0835 </r>
       <r>     5.3852    28.1217   635.8415 </r>
       <r>     5.4477    31.3915   637.8040 </r>
       <r>     5.5102    21.1793   639.1280 </r>
       <r>     5.5727     7.9751   639.6266 </r>
       <r>     5.6352    46.0238   642.5038 </r>
       <r>     5.6977    63.1822   646.4536 </r>
       <r>     5.7603    28.9336   648.2624 </r>
       <r>     5.8228    28.5559   650.0476 </r>
       <r>     5.8853    40.5138   652.5804 </r>
       <r>     5.9478    25.3352   654.1642 </r>
       <r>     6.0103    12.9518   654.9739 </r>
       <r>     6.0728    25.6474   656.5773 </r>
       <r>     6.1353    33.2911   658.6585 </r>
       <r>     6.1979    22.1120   660.0408 </r>
       <r>     6.2604     9.7594   660.6509 </r>
       <r>     6.3229     3.2451   660.8538 </r>
       <r>     6.3854     5.8348   661.2185 </r>
       <r>     6.4479    36.8633   663.5231 </r>
       <r>     6.5104   117.9184   670.8948 </r>
       <r>     6.5730    54.5487   674.3049 </r>
       <r>     6.6355     9.0529   674.8709 </r>
       <r>     6.6980    52.1177   678.1290 </r>
       <r>     6.7605   110.0074   685.0062 </r>
       <r>     6.8230    74.7421   689.6787 </r>
       <r>     6.8855    50.3091   692.8238 </r>
       <r>     6.9480    43.9118   695.5690 </r>
       <r>     7.0106    49.9844   698.6938 </r>
       <r>     7.0731    59.3049   702.4013 </r>
       <r>     7.1356    60.8187   706.2034 </r>
       <r>     7.1981    41.5049   708.7981 </r>
       <r>     7.2606    37.0395   711.1136 </r>
       <r>     7.3231    34.1873   713.2508 </r>
       <r>     7.3857    77.4892   718.0951 </r>
       <r>     7.4482    85.4503   723.4371 </r>
       <r>     7.5107    77.3848   728.2748 </r>
       <r>     7.5732    69.5556   732.6231 </r>
       <r>     7.6357   100.1950   738.8868 </r>
       <r>     7.6982    96.1418   744.8972 </r>
       <r>     7.7607    51.7418   748.1319 </r>
       <r>     7.8233    41.0606   750.6988 </r>
       <r>     7.8858    66.3256   754.8451 </r>
       <r>     7.9483    48.9407   757.9047 </r>
       <r>     8.0108    57.2998   761.4868 </r>
       <r>     8.0733    60.8317   765.2897 </r>
       <r>     8.1358    37.5484   767.6371 </r>
       <r>     8.1984     5.7285   767.9952 </r>
       <r>     8.2609     0.0765   768.0000 </r>
       <r>     8.3234     0.0001   768.0000 </r>
       <r>     8.3859     0.0000   768.0000 </r>
       <r>     8.4484     0.0000   768.0000 </r>
       <r>     8.5109     0.0000   768.0000 </r>
       <r>     8.5734     0.0000   768.0000 </r>
       <r>     8.6360     0.0000   768.0000 </r>
       <r>     8.6985     0.0000   768.0000 </r>
       <r>     8.7610     0.0000   768.0000 </r>
       <r>     8.8235     0.0000   768.0000 </r>
       <r>     8.8860     0.0000   768.0000 </r>
       <r>     8.9485     0.0000   768.0000 </r>
      </set>
     </set>
    </array>
   </total>
  </dos>
 </calculation>
 <structure name="finalpos" >
  <crystal>
   <varray name="basis" >
    <v>      13.12555350       0.00000000       0.00000000 </v>
    <v>       0.00000000      13.12555350       0.00000000 </v>
    <v>       0.00000000       0.00000000      13.12555350 </v>
   </varray>
   <i name="volume">   2261.27238683 </i>
   <varray name="rec_basis" >
    <v>       0.07618726       0.00000000       0.00000000 </v>
    <v>       0.00000000       0.07618726       0.00000000 </v>
    <v>       0.00000000       0.00000000       0.07618726 </v>
   </varray>
  </crystal>
  <varray name="positions" >
   <v>       0.00000000       0.00000000       0.00000000 </v>
   <v>       0.50000000       0.00000000       0.00000000 </v>
   <v>       0.00000000       0.50000000       0.00000000 </v>
   <v>       0.50000000       0.50000000       0.00000000 </v>
   <v>       0.00000000       0.00000000       0.50000000 </v>
   <v>       0.50000000       0.00000000       0.50000000 </v>
   <v>       0.00000000       0.50000000       0.50000000 </v>
   <v>       0.50000000       0.50000000       0.50000000 </v>
   <v>       0.00000000       0.25000000       0.25000000 </v>
   <v>       0.50000000       0.25000000       0.25000000 </v>
   <v>       0.00000000       0.75000000       0.25000000 </v>
   <v>       0.50000000       0.75000000       0.25000000 </v>
   <v>       0.00000000       0.25000000       0.75000000 </v>
   <v>       0.50000000       0.25000000       0.75000000 </v>
   <v>       0.00000000       0.75000000       0.75000000 </v>
   <v>       0.50000000       0.75000000       0.75000000 </v>
   <v>       0.25000000       0.00000000       0.25000000 </v>
   <v>       0.75000000       0.00000000       0.25000000 </v>
   <v>       0.25000000       0.50000000       0.25000000 </v>
   <v>       0.75000000       0.50000000       0.25000000 </v>
   <v>       0.25000000       0.00000000       0.75000000 </v>
   <v>       0.75000000       0.00000000       0.75000000 </v>
   <v>       0.25000000       0.50000000       0.75000000 </v>
   <v>       0.75000000       0.50000000       0.75000000 </v>
   <v>       0.25000000       0.25000000       0.00000000 </v>
   <v>       0.75000000       0.25000000       0.00000000 </v>
   <v>       0.25000000       0.75000000       0.00000000 </v>
   <v>       0.75000000       0.75000000       0.00000000 </v>
   <v>       0.25000000       0.25000000       0.50000000 </v>
   <v>       0.75000000       0.25000000       0.50000000 </v>
   <v>       0.25000000       0.75000000       0.50000000 </v>
   <v>       0.75000000       0.75000000       0.50000000 </v>
   <v>       0.12576187       0.12500000       0.12500000 </v>
   <v>       0.62500000       0.12500000       0.12500000 </v>
   <v>       0.12500000       0.62500000       0.12500000 </v>
   <v>       0.62500000       0.62500000       0.12500000 </v>
   <v>       0.12500000       0.12500000       0.62500000 </v>
   <v>       0.62500000       0.12500000       0.62500000 </v>
   <v>       0.12500000       0.62500000       0.62500000 </v>
   <v>       0.62500000       0.62500000       0.62500000 </v>
   <v>       0.12500000       0.37500000       0.37500000 </v>
   <v>       0.62500000       0.37500000       0.37500000 </v>
   <v>       0.12500000       0.87500000       0.37500000 </v>
   <v>       0.62500000       0.87500000       0.37500000 </v>
   <v>       0.12500000       0.37500000       0.87500000 </v>
   <v>       0.62500000       0.37500000       0.87500000 </v>
   <v>       0.12500000       0.87500000       0.87500000 </v>
   <v>       0.62500000       0.87500000       0.87500000 </v>
   <v>       0.37500000       0.12500000       0.37500000 </v>
   <v>       0.87500000       0.12500000       0.37500000 </v>
   <v>       0.37500000       0.62500000       0.37500000 </v>
   <v>       0.87500000       0.62500000       0.37500000 </v>
   <v>       0.37500000       0.12500000       0.87500000 </v>
   <v>       0.87500000       0.12500000       0.87500000 </v>
   <v>       0.37500000       0.62500000       0.87500000 </v>
   <v>       0.87500000       0.62500000       0.87500000 </v>
   <v>       0.37500000       0.37500000       0.12500000 </v>
   <v>       0.87500000       0.37500000       0.12500000 </v>
   <v>       0.37500000       0.87500000       0.12500000 </v>
   <v>       0.87500000       0.87500000       0.12500000 </v>
   <v>       0.37500000       0.37500000       0.62500000 </v>
   <v>       0.87500000       0.37500000       0.62500000 </v>
   <v>       0.37500000       0.87500000       0.62500000 </v>
   <v>       0.87500000       0.87500000       0.62500000 </v>
  </varray>
 </structure>
</modeling>
