<?xml version="1.0" encoding="ISO-8859-1"?>
<modeling>
 <generator>
  <i name="program" type="string">vasp </i>
  <i name="version" type="string">6.3.0  </i>
  <i name="subversion" type="string">20Jan22 (build Feb 10 2022 15:15:41) complex                          parallel </i>
  <i name="platform" type="string">LinuxIFC </i>
  <i name="date" type="string">2023 10 04 </i>
  <i name="time" type="string">15:52:51 </i>
 </generator>
 <incar>
  <i name="EDIFF">      0.00010000</i>
  <i name="ENCUT">    400.00000000</i>
  <i type="int" name="ISMEAR">     0</i>
  <i name="SIGMA">      0.05000000</i>
 </incar>
 <primitive_cell>
  <structure name="primitive_cell" >
   <crystal>
    <varray name="basis" >
     <v>       8.07682634       0.00000000       0.00000000 </v>
     <v>       0.00000000       8.07682634       0.00000000 </v>
     <v>       0.00000000       0.00000000       8.07682634 </v>
    </varray>
    <i name="volume">    526.89276523 </i>
    <varray name="rec_basis" >
     <v>       0.12381101       0.00000000       0.00000000 </v>
     <v>       0.00000000       0.12381101       0.00000000 </v>
     <v>       0.00000000       0.00000000       0.12381101 </v>
    </varray>
   </crystal>
   <varray name="positions" >
    <v>       0.00123811       0.00000000       0.00000000 </v>
    <v>       0.50000000       0.00000000       0.00000000 </v>
    <v>       0.00000000       0.50000000       0.00000000 </v>
    <v>       0.50000000       0.50000000       0.00000000 </v>
    <v>       0.00000000       0.00000000       0.50000000 </v>
    <v>       0.50000000       0.00000000       0.50000000 </v>
    <v>       0.00000000       0.50000000       0.50000000 </v>
    <v>       0.50000000       0.50000000       0.50000000 </v>
    <v>       0.00000000       0.25000000       0.25000000 </v>
    <v>       0.50000000       0.25000000       0.25000000 </v>
    <v>       0.00000000       0.75000000       0.25000000 </v>
    <v>       0.50000000       0.75000000       0.25000000 </v>
    <v>       0.00000000       0.25000000       0.75000000 </v>
    <v>       0.50000000       0.25000000       0.75000000 </v>
    <v>       0.00000000       0.75000000       0.75000000 </v>
    <v>       0.50000000       0.75000000       0.75000000 </v>
    <v>       0.25000000       0.00000000       0.25000000 </v>
    <v>       0.75000000       0.00000000       0.25000000 </v>
    <v>       0.25000000       0.50000000       0.25000000 </v>
    <v>       0.75000000       0.50000000       0.25000000 </v>
    <v>       0.25000000       0.00000000       0.75000000 </v>
    <v>       0.75000000       0.00000000       0.75000000 </v>
    <v>       0.25000000       0.50000000       0.75000000 </v>
    <v>       0.75000000       0.50000000       0.75000000 </v>
    <v>       0.25000000       0.25000000       0.00000000 </v>
    <v>       0.75000000       0.25000000       0.00000000 </v>
    <v>       0.25000000       0.75000000       0.00000000 </v>
    <v>       0.75000000       0.75000000       0.00000000 </v>
    <v>       0.25000000       0.25000000       0.50000000 </v>
    <v>       0.75000000       0.25000000       0.50000000 </v>
    <v>       0.25000000       0.75000000       0.50000000 </v>
    <v>       0.75000000       0.75000000       0.50000000 </v>
   </varray>
  </structure>
  <varray name="primitive_index" >
   <v type="int" >        1 </v>
   <v type="int" >        2 </v>
   <v type="int" >        3 </v>
   <v type="int" >        4 </v>
   <v type="int" >        5 </v>
   <v type="int" >        6 </v>
   <v type="int" >        7 </v>
   <v type="int" >        8 </v>
   <v type="int" >        9 </v>
   <v type="int" >       10 </v>
   <v type="int" >       11 </v>
   <v type="int" >       12 </v>
   <v type="int" >       13 </v>
   <v type="int" >       14 </v>
   <v type="int" >       15 </v>
   <v type="int" >       16 </v>
   <v type="int" >       17 </v>
   <v type="int" >       18 </v>
   <v type="int" >       19 </v>
   <v type="int" >       20 </v>
   <v type="int" >       21 </v>
   <v type="int" >       22 </v>
   <v type="int" >       23 </v>
   <v type="int" >       24 </v>
   <v type="int" >       25 </v>
   <v type="int" >       26 </v>
   <v type="int" >       27 </v>
   <v type="int" >       28 </v>
   <v type="int" >       29 </v>
   <v type="int" >       30 </v>
   <v type="int" >       31 </v>
   <v type="int" >       32 </v>
  </varray>
 </primitive_cell>
 <kpoints>
  <generation param="Gamma">
   <v type="int" name="divisions">       8        8        8 </v>
   <v name="usershift">      0.00000000       0.00000000       0.00000000 </v>
   <v name="genvec1">      0.12500000       0.00000000       0.00000000 </v>
   <v name="genvec2">      0.00000000       0.12500000       0.00000000 </v>
   <v name="genvec3">      0.00000000       0.00000000       0.12500000 </v>
   <v name="shift">      0.00000000       0.00000000       0.00000000 </v>
  </generation>
  <varray name="kpointlist" >
   <v>       0.00000000       0.00000000       0.00000000 </v>
   <v>       0.12500000       0.00000000       0.00000000 </v>
   <v>       0.00000000       0.12500000       0.00000000 </v>
   <v>       0.25000000       0.00000000       0.00000000 </v>
   <v>       0.00000000       0.25000000       0.00000000 </v>
   <v>       0.37500000       0.00000000       0.00000000 </v>
   <v>       0.00000000       0.37500000       0.00000000 </v>
   <v>       0.50000000       0.00000000       0.00000000 </v>
   <v>       0.00000000       0.50000000       0.00000000 </v>
   <v>       0.12500000       0.12500000       0.00000000 </v>
   <v>       0.00000000       0.12500000       0.12500000 </v>
   <v>       0.25000000       0.12500000       0.00000000 </v>
   <v>       0.00000000       0.25000000       0.12500000 </v>
   <v>       0.12500000       0.00000000       0.25000000 </v>
   <v>       0.37500000       0.12500000       0.00000000 </v>
   <v>       0.00000000       0.37500000       0.12500000 </v>
   <v>       0.12500000       0.00000000       0.37500000 </v>
   <v>       0.50000000       0.12500000       0.00000000 </v>
   <v>       0.00000000       0.50000000       0.12500000 </v>
   <v>       0.12500000       0.00000000       0.50000000 </v>
   <v>       0.25000000       0.25000000       0.00000000 </v>
   <v>       0.00000000       0.25000000       0.25000000 </v>
   <v>       0.37500000       0.25000000       0.00000000 </v>
   <v>       0.00000000       0.37500000       0.25000000 </v>
   <v>       0.25000000       0.00000000       0.37500000 </v>
   <v>       0.50000000       0.25000000       0.00000000 </v>
   <v>       0.00000000       0.50000000       0.25000000 </v>
   <v>       0.25000000       0.00000000       0.50000000 </v>
   <v>       0.37500000       0.37500000       0.00000000 </v>
   <v>       0.00000000       0.37500000       0.37500000 </v>
   <v>       0.50000000       0.37500000       0.00000000 </v>
   <v>       0.00000000       0.50000000       0.37500000 </v>
   <v>       0.37500000       0.00000000       0.50000000 </v>
   <v>       0.50000000       0.50000000       0.00000000 </v>
   <v>       0.00000000       0.50000000       0.50000000 </v>
   <v>       0.12500000       0.12500000       0.12500000 </v>
   <v>       0.25000000       0.12500000       0.12500000 </v>
   <v>       0.12500000       0.25000000       0.12500000 </v>
   <v>       0.37500000       0.12500000       0.12500000 </v>
   <v>       0.12500000       0.37500000       0.12500000 </v>
   <v>       0.50000000       0.12500000       0.12500000 </v>
   <v>       0.12500000       0.50000000       0.12500000 </v>
   <v>       0.25000000       0.25000000       0.12500000 </v>
   <v>       0.12500000       0.25000000       0.25000000 </v>
   <v>       0.37500000       0.25000000       0.12500000 </v>
   <v>       0.12500000       0.37500000       0.25000000 </v>
   <v>       0.25000000       0.12500000       0.37500000 </v>
   <v>       0.50000000       0.25000000       0.12500000 </v>
   <v>       0.12500000       0.50000000       0.25000000 </v>
   <v>       0.25000000       0.12500000       0.50000000 </v>
   <v>       0.37500000       0.37500000       0.12500000 </v>
   <v>       0.12500000       0.37500000       0.37500000 </v>
   <v>       0.50000000       0.37500000       0.12500000 </v>
   <v>       0.12500000       0.50000000       0.37500000 </v>
   <v>       0.37500000       0.12500000       0.50000000 </v>
   <v>       0.50000000       0.50000000       0.12500000 </v>
   <v>       0.12500000       0.50000000       0.50000000 </v>
   <v>       0.25000000       0.25000000       0.25000000 </v>
   <v>       0.37500000       0.25000000       0.25000000 </v>
   <v>       0.25000000       0.37500000       0.25000000 </v>
   <v>       0.50000000       0.25000000       0.25000000 </v>
   <v>       0.25000000       0.50000000       0.25000000 </v>
   <v>       0.37500000       0.37500000       0.25000000 </v>
   <v>       0.25000000       0.37500000       0.37500000 </v>
   <v>       0.50000000       0.37500000       0.25000000 </v>
   <v>       0.25000000       0.50000000       0.37500000 </v>
   <v>       0.37500000       0.25000000       0.50000000 </v>
   <v>       0.50000000       0.50000000       0.25000000 </v>
   <v>       0.25000000       0.50000000       0.50000000 </v>
   <v>       0.37500000       0.37500000       0.37500000 </v>
   <v>       0.50000000       0.37500000       0.37500000 </v>
   <v>       0.37500000       0.50000000       0.37500000 </v>
   <v>       0.50000000       0.50000000       0.37500000 </v>
   <v>       0.37500000       0.50000000       0.50000000 </v>
   <v>       0.50000000       0.50000000       0.50000000 </v>
  </varray>
  <varray name="weights" >
   <v>       0.00195312 </v>
   <v>       0.00390625 </v>
   <v>       0.00781250 </v>
   <v>       0.00390625 </v>
   <v>       0.00781250 </v>
   <v>       0.00390625 </v>
   <v>       0.00781250 </v>
   <v>       0.00195312 </v>
   <v>       0.00390625 </v>
   <v>       0.01562500 </v>
   <v>       0.00781250 </v>
   <v>       0.01562500 </v>
   <v>       0.01562500 </v>
   <v>       0.01562500 </v>
   <v>       0.01562500 </v>
   <v>       0.01562500 </v>
   <v>       0.01562500 </v>
   <v>       0.00781250 </v>
   <v>       0.00781250 </v>
   <v>       0.00781250 </v>
   <v>       0.01562500 </v>
   <v>       0.00781250 </v>
   <v>       0.01562500 </v>
   <v>       0.01562500 </v>
   <v>       0.01562500 </v>
   <v>       0.00781250 </v>
   <v>       0.00781250 </v>
   <v>       0.00781250 </v>
   <v>       0.01562500 </v>
   <v>       0.00781250 </v>
   <v>       0.00781250 </v>
   <v>       0.00781250 </v>
   <v>       0.00781250 </v>
   <v>       0.00390625 </v>
   <v>       0.00195312 </v>
   <v>       0.01562500 </v>
   <v>       0.01562500 </v>
   <v>       0.03125000 </v>
   <v>       0.01562500 </v>
   <v>       0.03125000 </v>
   <v>       0.00781250 </v>
   <v>       0.01562500 </v>
   <v>       0.03125000 </v>
   <v>       0.01562500 </v>
   <v>       0.03125000 </v>
   <v>       0.03125000 </v>
   <v>       0.03125000 </v>
   <v>       0.01562500 </v>
   <v>       0.01562500 </v>
   <v>       0.01562500 </v>
   <v>       0.03125000 </v>
   <v>       0.01562500 </v>
   <v>       0.01562500 </v>
   <v>       0.01562500 </v>
   <v>       0.01562500 </v>
   <v>       0.00781250 </v>
   <v>       0.00390625 </v>
   <v>       0.01562500 </v>
   <v>       0.01562500 </v>
   <v>       0.03125000 </v>
   <v>       0.00781250 </v>
   <v>       0.01562500 </v>
   <v>       0.03125000 </v>
   <v>       0.01562500 </v>
   <v>       0.01562500 </v>
   <v>       0.01562500 </v>
   <v>       0.01562500 </v>
   <v>       0.00781250 </v>
   <v>       0.00390625 </v>
   <v>       0.01562500 </v>
   <v>       0.00781250 </v>
   <v>       0.01562500 </v>
   <v>       0.00781250 </v>
   <v>       0.00390625 </v>
   <v>       0.00195312 </v>
  </varray>
 </kpoints>
 <parameters>
  <separator name="general" >
   <i type="string" name="SYSTEM">unknown system</i>
   <i type="logical" name="LCOMPAT"> F  </i>
  </separator>
  <separator name="electronic" >
   <i type="string" name="PREC">normal</i>
   <i name="ENMAX">    400.00000000</i>
   <i name="ENAUG">    291.05200000</i>
   <i name="EDIFF">      0.00010000</i>
   <i type="int" name="IALGO">    38</i>
   <i type="int" name="IWAVPR">    10</i>
   <i type="int" name="NBANDS">    72</i>
   <i type="int" name="NBANDSLOW">    -1</i>
   <i type="int" name="NBANDSHIGH">    -1</i>
   <i name="NELECT">     96.00000000</i>
   <i type="int" name="TURBO">     0</i>
   <i type="int" name="IRESTART">     0</i>
   <i type="int" name="NREBOOT">     0</i>
   <i type="int" name="NMIN">     0</i>
   <i name="EREF">      0.00000000</i>
   <separator name="electronic smearing" >
    <i type="int" name="ISMEAR">     0</i>
    <i name="SIGMA">      0.05000000</i>
    <i name="KSPACING">      0.50000000</i>
    <i type="logical" name="KGAMMA"> T  </i>
    <i type="logical" name="KBLOWUP"> T  </i>
   </separator>
   <separator name="electronic projectors" >
    <i type="logical" name="LREAL"> F  </i>
    <v name="ROPT">      0.00000000</v>
    <i type="int" name="LMAXPAW">  -100</i>
    <i type="int" name="LMAXMIX">     2</i>
    <i type="logical" name="NLSPLINE"> F  </i>
   </separator>
   <separator name="electronic startup" >
    <i type="int" name="ISTART">     0</i>
    <i type="int" name="ICHARG">     2</i>
    <i type="int" name="INIWAV">     1</i>
   </separator>
   <separator name="electronic spin" >
    <i type="int" name="ISPIN">     1</i>
    <i type="logical" name="LNONCOLLINEAR"> F  </i>
    <v name="MAGMOM">      1.00000000      1.00000000      1.00000000      1.00000000      1.00000000      1.00000000      1.00000000      1.00000000      1.00000000      1.00000000      1.00000000      1.00000000      1.00000000      1.00000000      1.00000000      1.00000000      1.00000000      1.00000000      1.00000000      1.00000000
      1.00000000      1.00000000      1.00000000      1.00000000      1.00000000      1.00000000      1.00000000      1.00000000      1.00000000      1.00000000      1.00000000      1.00000000</v>
    <i name="NUPDOWN">     -1.00000000</i>
    <i type="logical" name="LSORBIT"> F  </i>
    <v name="SAXIS">      0.00000000      0.00000000      1.00000000</v>
    <i type="logical" name="LSPIRAL"> F  </i>
    <v name="QSPIRAL">      0.00000000      0.00000000      0.00000000</v>
    <i type="logical" name="LZEROZ"> F  </i>
   </separator>
   <separator name="electronic exchange-correlation" >
    <i type="logical" name="LASPH"> F  </i>
    <i type="logical" name="LMETAGGA"> F  </i>
   </separator>
   <separator name="electronic convergence" >
    <i type="int" name="NELM">    60</i>
    <i type="int" name="NELMDL">    -5</i>
    <i type="int" name="NELMIN">     2</i>
    <i name="ENINI">    400.00000000</i>
    <separator name="electronic convergence detail" >
     <i type="logical" name="LDIAG"> T  </i>
     <i type="logical" name="LSUBROT"> F  </i>
     <i name="WEIMIN">      0.00000000</i>
     <i name="EBREAK">      0.00000035</i>
     <i name="DEPER">      0.30000000</i>
     <i type="int" name="NRMM">     4</i>
     <i name="TIME">      0.40000000</i>
    </separator>
   </separator>
   <separator name="electronic mixer" >
    <i name="AMIX">      0.40000000</i>
    <i name="BMIX">      1.00000000</i>
    <i name="AMIN">      0.10000000</i>
    <i name="AMIX_MAG">      1.60000000</i>
    <i name="BMIX_MAG">      1.00000000</i>
    <separator name="electronic mixer details" >
     <i type="int" name="IMIX">     4</i>
     <i type="logical" name="MIXFIRST"> F  </i>
     <i type="int" name="MAXMIX">   -45</i>
     <i name="WC">    100.00000000</i>
     <i type="int" name="INIMIX">     1</i>
     <i type="int" name="MIXPRE">     1</i>
     <i type="int" name="MREMOVE">     5</i>
    </separator>
   </separator>
   <separator name="electronic dipolcorrection" >
    <i type="logical" name="LDIPOL"> F  </i>
    <i type="logical" name="LMONO"> F  </i>
    <i type="int" name="IDIPOL">     0</i>
    <i name="EPSILON">      1.00000000</i>
    <v name="DIPOL">   -100.00000000   -100.00000000   -100.00000000</v>
    <i name="EFIELD">      0.00000000</i>
   </separator>
  </separator>
  <separator name="grids" >
   <i type="int" name="NGX">    40</i>
   <i type="int" name="NGY">    40</i>
   <i type="int" name="NGZ">    40</i>
   <i type="int" name="NGXF">    80</i>
   <i type="int" name="NGYF">    80</i>
   <i type="int" name="NGZF">    80</i>
   <i type="logical" name="ADDGRID"> F  </i>
  </separator>
  <separator name="ionic" >
   <i type="int" name="NSW">     0</i>
   <i type="int" name="IBRION">    -1</i>
   <i type="int" name="MDALGO">     0</i>
   <i type="int" name="ISIF">     2</i>
   <i name="PSTRESS">      0.00000000</i>
   <i name="EDIFFG">      0.00100000</i>
   <i type="int" name="NFREE">     0</i>
   <i name="POTIM">      0.50000000</i>
   <i name="SMASS">     -3.00000000</i>
   <i name="SCALEE">      1.00000000</i>
  </separator>
  <separator name="ionic md" >
   <i name="TEBEG">      0.00010000</i>
   <i name="TEEND">      0.00010000</i>
   <i type="int" name="NBLOCK">     1</i>
   <i type="int" name="KBLOCK">     1</i>
   <i type="int" name="NPACO">   256</i>
   <i name="APACO">     10.00000000</i>
  </separator>
  <separator name="symmetry" >
   <i type="int" name="ISYM">     2</i>
   <i name="SYMPREC">      0.00001000</i>
  </separator>
  <separator name="dos" >
   <i type="int" name="LORBIT">     0</i>
   <v name="RWIGS">     -1.00000000</v>
   <i type="int" name="NEDOS">   301</i>
   <i name="EMIN">     10.00000000</i>
   <i name="EMAX">    -10.00000000</i>
   <i name="EFERMI">      0.00000000</i>
  </separator>
  <separator name="writing" >
   <i type="int" name="NWRITE">     2</i>
   <i type="logical" name="LWAVE"> T  </i>
   <i type="logical" name="LDOWNSAMPLE"> F  </i>
   <i type="logical" name="LCHARG"> T  </i>
   <i type="logical" name="LPARD"> F  </i>
   <i type="logical" name="LVTOT"> F  </i>
   <i type="logical" name="LVHAR"> F  </i>
   <i type="logical" name="LELF"> F  </i>
   <i type="logical" name="LOPTICS"> F  </i>
   <v name="STM">      0.00000000      0.00000000      0.00000000      0.00000000      0.00000000      0.00000000      0.00000000</v>
  </separator>
  <separator name="performance" >
   <i type="int" name="NPAR">    24</i>
   <i type="int" name="NSIM">     4</i>
   <i type="int" name="NBLK">    -1</i>
   <i type="logical" name="LPLANE"> T  </i>
   <i type="logical" name="LSCALAPACK"> T  </i>
   <i type="logical" name="LSCAAWARE"> F  </i>
   <i type="logical" name="LSCALU"> F  </i>
   <i type="logical" name="LASYNC"> F  </i>
   <i type="logical" name="LORBITALREAL"> F  </i>
  </separator>
  <separator name="miscellaneous" >
   <i type="int" name="IDIOT">     3</i>
   <i type="int" name="PHON_NSTRUCT">    -1</i>
   <i type="logical" name="LMUSIC"> F  </i>
   <v name="POMASS">     26.98100000</v>
   <v name="DARWINR">      0.00000000</v>
   <v name="DARWINV">      1.00000000</v>
   <i type="logical" name="LCORR"> T  </i>
  </separator>
  <i type="logical" name="GGA_COMPAT"> T  </i>
  <i type="logical" name="LBERRY"> F  </i>
  <i type="int" name="ICORELEVEL">     0</i>
  <i type="logical" name="LDAU"> F  </i>
  <i type="int" name="I_CONSTRAINED_M">     0</i>
  <separator name="electronic exchange-correlation" >
   <i type="string" name="GGA">--</i>
   <i type="int" name="VOSKOWN">     0</i>
   <i type="logical" name="LHFCALC"> F  </i>
   <i type="string" name="PRECFOCK"></i>
   <i type="logical" name="LSYMGRAD"> F  </i>
   <i type="logical" name="LHFONE"> F  </i>
   <i type="logical" name="LRHFCALC"> F  </i>
   <i type="logical" name="LTHOMAS"> F  </i>
   <i type="logical" name="LMODELHF"> F  </i>
   <i type="logical" name="LFOCKACE"> F  </i>
   <i name="ENCUT4O">     -1.00000000</i>
   <i type="int" name="EXXOEP">     0</i>
   <i type="int" name="FOURORBIT">     0</i>
   <i name="AEXX">      0.00000000</i>
   <i name="HFALPHA">      0.00000000</i>
   <i name="MCALPHA">      0.00000000</i>
   <i name="ALDAX">      1.00000000</i>
   <i name="AGGAX">      1.00000000</i>
   <i name="ALDAC">      1.00000000</i>
   <i name="AGGAC">      1.00000000</i>
   <i type="int" name="NKREDX">     1</i>
   <i type="int" name="NKREDY">     1</i>
   <i type="int" name="NKREDZ">     1</i>
   <i type="logical" name="SHIFTRED"> F  </i>
   <i type="logical" name="ODDONLY"> F  </i>
   <i type="logical" name="EVENONLY"> F  </i>
   <i type="int" name="LMAXFOCK">     0</i>
   <i type="int" name="NMAXFOCKAE">     0</i>
   <i type="logical" name="LFOCKAEDFT"> F  </i>
   <i name="HFSCREEN">      0.00000000</i>
   <i name="HFSCREENC">      0.00000000</i>
   <i type="int" name="NBANDSGWLOW">     0</i>
  </separator>
  <separator name="vdW DFT" >
   <i type="logical" name="LUSE_VDW"> F  </i>
   <i name="Zab_VDW">     -0.84910000</i>
   <i name="PARAM1">      0.12340000</i>
   <i name="PARAM2">      1.00000000</i>
   <i name="PARAM3">      0.00000000</i>
  </separator>
  <separator name="model GW" >
   <i type="int" name="MODEL_GW">     0</i>
   <i name="MODEL_EPS0">      9.87923935</i>
   <i name="MODEL_ALPHA">      1.00000000</i>
  </separator>
  <separator name="linear response parameters" >
   <i type="logical" name="LEPSILON"> F  </i>
   <i type="logical" name="LRPA"> F  </i>
   <i type="logical" name="LNABLA"> F  </i>
   <i type="logical" name="LVEL"> F  </i>
   <i name="CSHIFT">      0.10000000</i>
   <i name="OMEGAMAX">     -1.00000000</i>
   <i name="DEG_THRESHOLD">      0.00200000</i>
   <i name="RTIME">     -0.10000000</i>
   <i name="WPLASMAI">      0.00000000</i>
   <v name="DFIELD">      0.00000000      0.00000000      0.00000000</v>
   <v name="WPLASMA">      0.00000000      0.00000000      0.00000000      0.00000000      0.00000000      0.00000000      0.00000000      0.00000000      0.00000000</v>
  </separator>
  <separator name="orbital magnetization" >
   <i type="logical" name="NUCIND"> F  </i>
   <v name="MAGPOS">      0.00000000      0.00000000      0.00000000</v>
   <i type="logical" name="LNICSALL"> T  </i>
   <i type="logical" name="ORBITALMAG"> F  </i>
   <i type="logical" name="LMAGBLOCH"> F  </i>
   <i type="logical" name="LCHIMAG"> F  </i>
   <i type="logical" name="LGAUGE"> T  </i>
   <i type="int" name="MAGATOM">     0</i>
   <v name="MAGDIPOL">      0.00000000      0.00000000      0.00000000</v>
   <v name="AVECCONST">      0.00000000      0.00000000      0.00000000</v>
  </separator>
  <separator name="response functions" >
   <i type="logical" name="LFINITE_TEMPERATURE"> F  </i>
   <i type="logical" name="LADDER"> F  </i>
   <i type="logical" name="LRPAFORCE"> F  </i>
   <i type="logical" name="LFXC"> F  </i>
   <i type="logical" name="LHARTREE"> T  </i>
   <i type="int" name="IBSE">     0</i>
   <v type="int" name="KPOINT">    -1     0     0     0</v>
   <i type="logical" name="LTCTC"> F  </i>
   <i type="logical" name="LTCTE"> F  </i>
   <i type="logical" name="LTETE"> F  </i>
   <i type="logical" name="LTRIPLET"> F  </i>
   <i type="logical" name="LFXCEPS"> F  </i>
   <i type="logical" name="LFXHEG"> F  </i>
   <i type="int" name="NATURALO">     2</i>
   <i type="logical" name="LHOLEGF"> F  </i>
   <i type="logical" name="L2ORDER"> F  </i>
   <i type="logical" name="LDMP1"> F  </i>
   <i type="logical" name="LMP2LT"> F  </i>
   <i type="logical" name="LSMP2LT"> F  </i>
   <i type="logical" name="LGWLF"> F  </i>
   <i name="ENCUTGW">     -2.00000000</i>
   <i name="ENCUTGWSOFT">     -2.00000000</i>
   <i name="ENCUTLF">     -1.00000000</i>
   <i type="logical" name="LESF_SPLINES"> F  </i>
   <i type="int" name="LMAXMP2">    -1</i>
   <i name="SCISSOR">      0.00000000</i>
   <i type="int" name="NOMEGA">     0</i>
   <i type="int" name="NOMEGAR">     0</i>
   <i type="int" name="NBANDSGW">    -1</i>
   <i type="int" name="NBANDSO">    -1</i>
   <i type="int" name="NBANDSV">    -1</i>
   <i type="int" name="NELMGW">     1</i>
   <i type="int" name="NELMHF">     1</i>
   <i type="int" name="DIM">     3</i>
   <i type="int" name="IESPILON">     4</i>
   <i type="int" name="ANTIRES">     0</i>
   <i name="OMEGAMAX">    -30.00000000</i>
   <i name="OMEGAMIN">    -30.00000000</i>
   <i name="OMEGATL">   -200.00000000</i>
   <i type="int" name="OMEGAGRID">     0</i>
   <i name="CSHIFT">     -0.10000000</i>
   <i type="logical" name="LSELFENERGY"> F  </i>
   <i type="logical" name="LSPECTRAL"> F  </i>
   <i type="logical" name="LSPECTRALGW"> F  </i>
   <i type="logical" name="LSINGLES"> F  </i>
   <i type="logical" name="LFERMIGW"> F  </i>
   <i type="logical" name="ODDONLYGW"> F  </i>
   <i type="logical" name="EVENONLYGW"> F  </i>
   <i type="int" name="NKREDLFX">     1</i>
   <i type="int" name="NKREDLFY">     1</i>
   <i type="int" name="NKREDLFZ">     1</i>
   <i type="int" name="MAXMEM">  2800</i>
   <i type="int" name="TELESCOPE">     0</i>
   <i type="int" name="NTAUPAR">    -1</i>
   <i type="int" name="NOMEGAPAR">    -1</i>
   <i name="DAMP_NEWTON">      0.80000001</i>
   <i name="LAMBDA">      1.00000000</i>
  </separator>
  <separator name="External order field" >
   <i name="OFIELD_KAPPA">      0.00000000</i>
   <v name="OFIELD_K">      0.00000000      0.00000000      0.00000000</v>
   <i name="OFIELD_Q6_NEAR">      0.00000000</i>
   <i name="OFIELD_Q6_FAR">      0.00000000</i>
   <i name="OFIELD_A">      0.00000000</i>
  </separator>
  <separator name="optional k-points parameters" >
   <i type="int" name="KPOINTS_OPT_MODE">     1</i>
   <i type="logical" name="LKPOINTS_OPT"> F  </i>
  </separator>
 </parameters>
 <atominfo>
  <atoms>      32 </atoms>
  <types>       1 </types>
  <array name="atoms" >
   <dimension dim="1">ion</dimension>
   <field type="string">element</field>
   <field type="int">atomtype</field>
   <set>
    <rc><c>Al</c><c>   1</c></rc>
    <rc><c>Al</c><c>   1</c></rc>
    <rc><c>Al</c><c>   1</c></rc>
    <rc><c>Al</c><c>   1</c></rc>
    <rc><c>Al</c><c>   1</c></rc>
    <rc><c>Al</c><c>   1</c></rc>
    <rc><c>Al</c><c>   1</c></rc>
    <rc><c>Al</c><c>   1</c></rc>
    <rc><c>Al</c><c>   1</c></rc>
    <rc><c>Al</c><c>   1</c></rc>
    <rc><c>Al</c><c>   1</c></rc>
    <rc><c>Al</c><c>   1</c></rc>
    <rc><c>Al</c><c>   1</c></rc>
    <rc><c>Al</c><c>   1</c></rc>
    <rc><c>Al</c><c>   1</c></rc>
    <rc><c>Al</c><c>   1</c></rc>
    <rc><c>Al</c><c>   1</c></rc>
    <rc><c>Al</c><c>   1</c></rc>
    <rc><c>Al</c><c>   1</c></rc>
    <rc><c>Al</c><c>   1</c></rc>
    <rc><c>Al</c><c>   1</c></rc>
    <rc><c>Al</c><c>   1</c></rc>
    <rc><c>Al</c><c>   1</c></rc>
    <rc><c>Al</c><c>   1</c></rc>
    <rc><c>Al</c><c>   1</c></rc>
    <rc><c>Al</c><c>   1</c></rc>
    <rc><c>Al</c><c>   1</c></rc>
    <rc><c>Al</c><c>   1</c></rc>
    <rc><c>Al</c><c>   1</c></rc>
    <rc><c>Al</c><c>   1</c></rc>
    <rc><c>Al</c><c>   1</c></rc>
    <rc><c>Al</c><c>   1</c></rc>
   </set>
  </array>
  <array name="atomtypes" >
   <dimension dim="1">type</dimension>
   <field type="int">atomspertype</field>
   <field type="string">element</field>
   <field>mass</field>
   <field>valence</field>
   <field type="string">pseudopotential</field>
   <set>
    <rc><c>  32</c><c>Al</c><c>     26.98100000</c><c>      3.00000000</c><c>  PAW_PBE Al 04Jan2001                  </c></rc>
   </set>
  </array>
 </atominfo>
 <structure name="initialpos" >
  <crystal>
   <varray name="basis" >
    <v>       8.07682634       0.00000000       0.00000000 </v>
    <v>       0.00000000       8.07682634       0.00000000 </v>
    <v>       0.00000000       0.00000000       8.07682634 </v>
   </varray>
   <i name="volume">    526.89276523 </i>
   <varray name="rec_basis" >
    <v>       0.12381101       0.00000000       0.00000000 </v>
    <v>       0.00000000       0.12381101       0.00000000 </v>
    <v>       0.00000000       0.00000000       0.12381101 </v>
   </varray>
  </crystal>
  <varray name="positions" >
   <v>       0.00123811       0.00000000       0.00000000 </v>
   <v>       0.50000000       0.00000000       0.00000000 </v>
   <v>       0.00000000       0.50000000       0.00000000 </v>
   <v>       0.50000000       0.50000000       0.00000000 </v>
   <v>       0.00000000       0.00000000       0.50000000 </v>
   <v>       0.50000000       0.00000000       0.50000000 </v>
   <v>       0.00000000       0.50000000       0.50000000 </v>
   <v>       0.50000000       0.50000000       0.50000000 </v>
   <v>       0.00000000       0.25000000       0.25000000 </v>
   <v>       0.50000000       0.25000000       0.25000000 </v>
   <v>       0.00000000       0.75000000       0.25000000 </v>
   <v>       0.50000000       0.75000000       0.25000000 </v>
   <v>       0.00000000       0.25000000       0.75000000 </v>
   <v>       0.50000000       0.25000000       0.75000000 </v>
   <v>       0.00000000       0.75000000       0.75000000 </v>
   <v>       0.50000000       0.75000000       0.75000000 </v>
   <v>       0.25000000       0.00000000       0.25000000 </v>
   <v>       0.75000000       0.00000000       0.25000000 </v>
   <v>       0.25000000       0.50000000       0.25000000 </v>
   <v>       0.75000000       0.50000000       0.25000000 </v>
   <v>       0.25000000       0.00000000       0.75000000 </v>
   <v>       0.75000000       0.00000000       0.75000000 </v>
   <v>       0.25000000       0.50000000       0.75000000 </v>
   <v>       0.75000000       0.50000000       0.75000000 </v>
   <v>       0.25000000       0.25000000       0.00000000 </v>
   <v>       0.75000000       0.25000000       0.00000000 </v>
   <v>       0.25000000       0.75000000       0.00000000 </v>
   <v>       0.75000000       0.75000000       0.00000000 </v>
   <v>       0.25000000       0.25000000       0.50000000 </v>
   <v>       0.75000000       0.25000000       0.50000000 </v>
   <v>       0.25000000       0.75000000       0.50000000 </v>
   <v>       0.75000000       0.75000000       0.50000000 </v>
  </varray>
 </structure>
 <calculation>
  <scstep>
   <time name="dav">    4.02    4.06</time>
   <time name="total">    4.04    4.08</time>
   <energy>
    <i name="alphaZ">     -6.52774448 </i>
    <i name="ewald">  -2354.14846258 </i>
    <i name="hartreedc">     -3.22054515 </i>
    <i name="XCdc">   -839.55211235 </i>
    <i name="pawpsdc">   2118.40502803 </i>
    <i name="pawaedc">  -1095.85986421 </i>
    <i name="eentropy">     -0.01143797 </i>
    <i name="bandstr">    549.81357297 </i>
    <i name="atom">   1713.22093829 </i>
    <i name="e_fr_energy">     82.11937256 </i>
    <i name="e_wo_entrp">     82.13081053 </i>
    <i name="e_0_energy">     82.12509154 </i>
   </energy>
  </scstep>
  <scstep>
   <time name="dav">    4.69    4.73</time>
   <time name="total">    4.69    4.73</time>
   <energy>
    <i name="e_fr_energy">   -112.61268024 </i>
    <i name="e_wo_entrp">   -112.59784808 </i>
    <i name="e_0_energy">   -112.60526416 </i>
   </energy>
  </scstep>
  <scstep>
   <time name="dav">    5.07    5.10</time>
   <time name="total">    5.07    5.10</time>
   <energy>
    <i name="e_fr_energy">   -120.52656269 </i>
    <i name="e_wo_entrp">   -120.51313944 </i>
    <i name="e_0_energy">   -120.51985107 </i>
   </energy>
  </scstep>
  <scstep>
   <time name="dav">    4.34    4.36</time>
   <time name="total">    4.34    4.36</time>
   <energy>
    <i name="e_fr_energy">   -120.62218114 </i>
    <i name="e_wo_entrp">   -120.60891419 </i>
    <i name="e_0_energy">   -120.61554766 </i>
   </energy>
  </scstep>
  <scstep>
   <time name="dav">    5.04    5.06</time>
   <time name="total">    5.11    5.16</time>
   <energy>
    <i name="e_fr_energy">   -120.62328877 </i>
    <i name="e_wo_entrp">   -120.61002534 </i>
    <i name="e_0_energy">   -120.61665705 </i>
   </energy>
  </scstep>
  <scstep>
   <time name="dav">    4.50    4.53</time>
   <time name="total">    4.58    4.61</time>
   <energy>
    <i name="e_fr_energy">   -120.20623629 </i>
    <i name="e_wo_entrp">   -120.19265969 </i>
    <i name="e_0_energy">   -120.19944799 </i>
   </energy>
  </scstep>
  <scstep>
   <time name="dav">    4.47    4.49</time>
   <time name="total">    4.56    4.59</time>
   <energy>
    <i name="e_fr_energy">   -119.90339554 </i>
    <i name="e_wo_entrp">   -119.88915589 </i>
    <i name="e_0_energy">   -119.89627572 </i>
   </energy>
  </scstep>
  <scstep>
   <time name="dav">    4.80    4.82</time>
   <time name="total">    4.87    4.90</time>
   <energy>
    <i name="e_fr_energy">   -119.90062349 </i>
    <i name="e_wo_entrp">   -119.88632484 </i>
    <i name="e_0_energy">   -119.89347417 </i>
   </energy>
  </scstep>
  <scstep>
   <time name="dav">    3.76    3.78</time>
   <time name="total">    3.77    3.81</time>
   <energy>
    <i name="alphaZ">     -6.52774448 </i>
    <i name="ewald">  -2354.14846258 </i>
    <i name="hartreedc">     -3.37478669 </i>
    <i name="XCdc">   -836.03484485 </i>
    <i name="pawpsdc">   4536.50734932 </i>
    <i name="pawaedc">  -3514.37695975 </i>
    <i name="eentropy">     -0.01431111 </i>
    <i name="bandstr">    344.84827915 </i>
    <i name="atom">   1713.22093829 </i>
    <i name="e_fr_energy">   -119.90054270 </i>
    <i name="e_wo_entrp">   -119.88623159 </i>
    <i name="e_0_energy">   -119.89338714 </i>
   </energy>
  </scstep>
  <structure>
   <crystal>
    <varray name="basis" >
     <v>       8.07682634       0.00000000       0.00000000 </v>
     <v>       0.00000000       8.07682634       0.00000000 </v>
     <v>       0.00000000       0.00000000       8.07682634 </v>
    </varray>
    <i name="volume">    526.89276523 </i>
    <varray name="rec_basis" >
     <v>       0.12381101       0.00000000       0.00000000 </v>
     <v>       0.00000000       0.12381101       0.00000000 </v>
     <v>       0.00000000       0.00000000       0.12381101 </v>
    </varray>
   </crystal>
   <varray name="positions" >
    <v>       0.00123811       0.00000000       0.00000000 </v>
    <v>       0.50000000       0.00000000       0.00000000 </v>
    <v>       0.00000000       0.50000000       0.00000000 </v>
    <v>       0.50000000       0.50000000       0.00000000 </v>
    <v>       0.00000000       0.00000000       0.50000000 </v>
    <v>       0.50000000       0.00000000       0.50000000 </v>
    <v>       0.00000000       0.50000000       0.50000000 </v>
    <v>       0.50000000       0.50000000       0.50000000 </v>
    <v>       0.00000000       0.25000000       0.25000000 </v>
    <v>       0.50000000       0.25000000       0.25000000 </v>
    <v>       0.00000000       0.75000000       0.25000000 </v>
    <v>       0.50000000       0.75000000       0.25000000 </v>
    <v>       0.00000000       0.25000000       0.75000000 </v>
    <v>       0.50000000       0.25000000       0.75000000 </v>
    <v>       0.00000000       0.75000000       0.75000000 </v>
    <v>       0.50000000       0.75000000       0.75000000 </v>
    <v>       0.25000000       0.00000000       0.25000000 </v>
    <v>       0.75000000       0.00000000       0.25000000 </v>
    <v>       0.25000000       0.50000000       0.25000000 </v>
    <v>       0.75000000       0.50000000       0.25000000 </v>
    <v>       0.25000000       0.00000000       0.75000000 </v>
    <v>       0.75000000       0.00000000       0.75000000 </v>
    <v>       0.25000000       0.50000000       0.75000000 </v>
    <v>       0.75000000       0.50000000       0.75000000 </v>
    <v>       0.25000000       0.25000000       0.00000000 </v>
    <v>       0.75000000       0.25000000       0.00000000 </v>
    <v>       0.25000000       0.75000000       0.00000000 </v>
    <v>       0.75000000       0.75000000       0.00000000 </v>
    <v>       0.25000000       0.25000000       0.50000000 </v>
    <v>       0.75000000       0.25000000       0.50000000 </v>
    <v>       0.25000000       0.75000000       0.50000000 </v>
    <v>       0.75000000       0.75000000       0.50000000 </v>
   </varray>
  </structure>
  <varray name="forces" >
   <v>      -0.04643654      -0.00000000      -0.00000000 </v>
   <v>       0.00251716      -0.00000000      -0.00000000 </v>
   <v>      -0.00043168      -0.00000000      -0.00000000 </v>
   <v>       0.00080446      -0.00000000      -0.00000000 </v>
   <v>      -0.00043168      -0.00000000      -0.00000000 </v>
   <v>       0.00080446      -0.00000000      -0.00000000 </v>
   <v>      -0.00012022      -0.00000000      -0.00000000 </v>
   <v>      -0.00103335      -0.00000000      -0.00000000 </v>
   <v>      -0.00148958      -0.00000936      -0.00000936 </v>
   <v>      -0.00020027       0.00000614       0.00000614 </v>
   <v>      -0.00148958       0.00000936      -0.00000936 </v>
   <v>      -0.00020027      -0.00000614       0.00000614 </v>
   <v>      -0.00148958      -0.00000936       0.00000936 </v>
   <v>      -0.00020027       0.00000614      -0.00000614 </v>
   <v>      -0.00148958       0.00000936       0.00000936 </v>
   <v>      -0.00020027      -0.00000614      -0.00000614 </v>
   <v>       0.00626286      -0.00000000       0.00664960 </v>
   <v>       0.00611577      -0.00000000      -0.00639390 </v>
   <v>       0.00019672      -0.00000000      -0.00003059 </v>
   <v>       0.00019634      -0.00000000       0.00002928 </v>
   <v>       0.00626286      -0.00000000      -0.00664960 </v>
   <v>       0.00611577      -0.00000000       0.00639390 </v>
   <v>       0.00019672      -0.00000000       0.00003059 </v>
   <v>       0.00019634      -0.00000000      -0.00002928 </v>
   <v>       0.00626286       0.00664960      -0.00000000 </v>
   <v>       0.00611577      -0.00639390      -0.00000000 </v>
   <v>       0.00626286      -0.00664960      -0.00000000 </v>
   <v>       0.00611577       0.00639390      -0.00000000 </v>
   <v>       0.00019672      -0.00003059      -0.00000000 </v>
   <v>       0.00019634       0.00002928      -0.00000000 </v>
   <v>       0.00019672       0.00003059      -0.00000000 </v>
   <v>       0.00019634      -0.00002928      -0.00000000 </v>
  </varray>
  <varray name="stress" >
   <v>      -0.29326997       0.00000000       0.00000000 </v>
   <v>      -0.00000000      -0.29329514       0.00000000 </v>
   <v>       0.00000000       0.00000000      -0.29329514 </v>
  </varray>
  <energy>
   <i name="e_fr_energy">   -119.90054270 </i>
   <i name="e_wo_entrp">   -119.88623159 </i>
   <i name="e_0_energy">   -119.89338714 </i>
  </energy>
  <time name="totalsc">   48.83   49.71</time>
  <eigenvalues>
   <array>
    <dimension dim="1">band</dimension>
    <dimension dim="2">kpoint</dimension>
    <dimension dim="3">spin</dimension>
    <field>eigene</field>
    <field>occ</field>
    <set>
     <set comment="spin 1">
      <set comment="kpoint 1">
       <r>   -3.1265    1.0000 </r>
       <r>   -0.8790    1.0000 </r>
       <r>   -0.8752    1.0000 </r>
       <r>   -0.8752    1.0000 </r>
       <r>   -0.8752    1.0000 </r>
       <r>   -0.8751    1.0000 </r>
       <r>   -0.8714    1.0000 </r>
       <r>    1.3346    1.0000 </r>
       <r>    1.3391    1.0000 </r>
       <r>    1.3391    1.0000 </r>
       <r>    1.3408    1.0000 </r>
       <r>    1.3410    1.0000 </r>
       <r>    1.3410    1.0000 </r>
       <r>    1.3410    1.0000 </r>
       <r>    1.3410    1.0000 </r>
       <r>    1.3412    1.0000 </r>
       <r>    1.3429    1.0000 </r>
       <r>    1.3429    1.0000 </r>
       <r>    1.3474    1.0000 </r>
       <r>    3.4210    1.0000 </r>
       <r>    3.4211    1.0000 </r>
       <r>    3.4211    1.0000 </r>
       <r>    3.4211    1.0000 </r>
       <r>    3.6401    1.0000 </r>
       <r>    3.6401    1.0000 </r>
       <r>    3.6401    1.0000 </r>
       <r>    3.6401    1.0000 </r>
       <r>    5.0936    1.0000 </r>
       <r>    5.0936    1.0000 </r>
       <r>    5.0936    1.0000 </r>
       <r>    6.4215    1.0000 </r>
       <r>    6.4216    1.0000 </r>
       <r>    6.4216    1.0000 </r>
       <r>    7.1694    1.0000 </r>
       <r>    7.1694    1.0000 </r>
       <r>    7.1738    1.0000 </r>
       <r>    7.1738    1.0000 </r>
       <r>    7.1739    1.0000 </r>
       <r>    7.1739    1.0000 </r>
       <r>    7.1739    1.0000 </r>
       <r>    7.1739    1.0000 </r>
       <r>    7.1740    1.0000 </r>
       <r>    7.1740    1.0000 </r>
       <r>    7.1784    1.0000 </r>
       <r>    7.1784    1.0000 </r>
       <r>    8.1844    0.0000 </r>
       <r>    8.1886    0.0000 </r>
       <r>    8.1886    0.0000 </r>
       <r>    8.1886    0.0000 </r>
       <r>    8.1886    0.0000 </r>
       <r>    8.1928    0.0000 </r>
       <r>    9.1401    0.0000 </r>
       <r>    9.1412    0.0000 </r>
       <r>    9.1412    0.0000 </r>
       <r>    9.1412    0.0000 </r>
       <r>    9.1412    0.0000 </r>
       <r>    9.1423    0.0000 </r>
       <r>    9.2565    0.0000 </r>
       <r>    9.2565    0.0000 </r>
       <r>    9.2581    0.0000 </r>
       <r>    9.2605    0.0000 </r>
       <r>    9.2606    0.0000 </r>
       <r>    9.2606    0.0000 </r>
       <r>    9.2606    0.0000 </r>
       <r>    9.2607    0.0000 </r>
       <r>    9.2608    0.0000 </r>
       <r>    9.2631    0.0000 </r>
       <r>    9.2648    0.0000 </r>
       <r>    9.2648    0.0000 </r>
       <r>   10.7804    0.0000 </r>
       <r>   10.7818    0.0000 </r>
       <r>   10.7833    0.0000 </r>
      </set>
      <set comment="kpoint 2">
       <r>   -3.0910    1.0000 </r>
       <r>   -1.3995    1.0000 </r>
       <r>   -0.8403    1.0000 </r>
       <r>   -0.8403    1.0000 </r>
       <r>   -0.8403    1.0000 </r>
       <r>   -0.8403    1.0000 </r>
       <r>   -0.2834    1.0000 </r>
       <r>    0.8247    1.0000 </r>
       <r>    0.8247    1.0000 </r>
       <r>    0.8247    1.0000 </r>
       <r>    0.8247    1.0000 </r>
       <r>    1.3754    1.0000 </r>
       <r>    1.3754    1.0000 </r>
       <r>    1.3754    1.0000 </r>
       <r>    1.3754    1.0000 </r>
       <r>    1.9235    1.0000 </r>
       <r>    1.9235    1.0000 </r>
       <r>    1.9235    1.0000 </r>
       <r>    1.9236    1.0000 </r>
       <r>    3.0097    1.0000 </r>
       <r>    3.0097    1.0000 </r>
       <r>    3.0097    1.0000 </r>
       <r>    3.0097    1.0000 </r>
       <r>    4.1172    1.0000 </r>
       <r>    4.1172    1.0000 </r>
       <r>    4.1172    1.0000 </r>
       <r>    4.1172    1.0000 </r>
       <r>    4.5195    1.0000 </r>
       <r>    5.1260    1.0000 </r>
       <r>    5.1260    1.0000 </r>
       <r>    6.4558    1.0000 </r>
       <r>    6.4558    1.0000 </r>
       <r>    6.6227    1.0000 </r>
       <r>    6.6227    1.0000 </r>
       <r>    6.6228    1.0000 </r>
       <r>    6.6228    1.0000 </r>
       <r>    6.6856    1.0000 </r>
       <r>    6.6856    1.0000 </r>
       <r>    7.0570    1.0000 </r>
       <r>    7.2065    1.0000 </r>
       <r>    7.2065    1.0000 </r>
       <r>    7.2065    1.0000 </r>
       <r>    7.2065    1.0000 </r>
       <r>    7.7278    1.0000 </r>
       <r>    7.7278    1.0000 </r>
       <r>    7.9756    0.8977 </r>
       <r>    7.9756    0.8976 </r>
       <r>    8.4868    0.0000 </r>
       <r>    8.4869    0.0000 </r>
       <r>    8.4869    0.0000 </r>
       <r>    8.4869    0.0000 </r>
       <r>    8.7494    0.0000 </r>
       <r>    8.7494    0.0000 </r>
       <r>    8.7495    0.0000 </r>
       <r>    8.7496    0.0000 </r>
       <r>    8.7711    0.0000 </r>
       <r>    8.7712    0.0000 </r>
       <r>    8.7713    0.0000 </r>
       <r>    8.7713    0.0000 </r>
       <r>    9.4152    0.0000 </r>
       <r>    9.4152    0.0000 </r>
       <r>    9.4882    0.0000 </r>
       <r>    9.4882    0.0000 </r>
       <r>    9.4882    0.0000 </r>
       <r>    9.4883    0.0000 </r>
       <r>    9.8156    0.0000 </r>
       <r>    9.8156    0.0000 </r>
       <r>    9.8156    0.0000 </r>
       <r>    9.8156    0.0000 </r>
       <r>   10.2895    0.0000 </r>
       <r>   10.2895    0.0000 </r>
       <r>   10.2896    0.0000 </r>
      </set>
      <set comment="kpoint 3">
       <r>   -3.0910    1.0000 </r>
       <r>   -1.3995    1.0000 </r>
       <r>   -0.8432    1.0000 </r>
       <r>   -0.8403    1.0000 </r>
       <r>   -0.8403    1.0000 </r>
       <r>   -0.8373    1.0000 </r>
       <r>   -0.2834    1.0000 </r>
       <r>    0.8218    1.0000 </r>
       <r>    0.8247    1.0000 </r>
       <r>    0.8247    1.0000 </r>
       <r>    0.8277    1.0000 </r>
       <r>    1.3732    1.0000 </r>
       <r>    1.3742    1.0000 </r>
       <r>    1.3765    1.0000 </r>
       <r>    1.3776    1.0000 </r>
       <r>    1.9206    1.0000 </r>
       <r>    1.9235    1.0000 </r>
       <r>    1.9235    1.0000 </r>
       <r>    1.9265    1.0000 </r>
       <r>    3.0075    1.0000 </r>
       <r>    3.0085    1.0000 </r>
       <r>    3.0109    1.0000 </r>
       <r>    3.0119    1.0000 </r>
       <r>    4.1150    1.0000 </r>
       <r>    4.1160    1.0000 </r>
       <r>    4.1184    1.0000 </r>
       <r>    4.1194    1.0000 </r>
       <r>    4.5195    1.0000 </r>
       <r>    5.1260    1.0000 </r>
       <r>    5.1261    1.0000 </r>
       <r>    6.4558    1.0000 </r>
       <r>    6.4558    1.0000 </r>
       <r>    6.6195    1.0000 </r>
       <r>    6.6228    1.0000 </r>
       <r>    6.6228    1.0000 </r>
       <r>    6.6259    1.0000 </r>
       <r>    6.6856    1.0000 </r>
       <r>    6.6857    1.0000 </r>
       <r>    7.0570    1.0000 </r>
       <r>    7.2037    1.0000 </r>
       <r>    7.2065    1.0000 </r>
       <r>    7.2065    1.0000 </r>
       <r>    7.2092    1.0000 </r>
       <r>    7.7278    1.0000 </r>
       <r>    7.7278    1.0000 </r>
       <r>    7.9756    0.8978 </r>
       <r>    7.9756    0.8976 </r>
       <r>    8.4842    0.0000 </r>
       <r>    8.4869    0.0000 </r>
       <r>    8.4869    0.0000 </r>
       <r>    8.4895    0.0000 </r>
       <r>    8.7468    0.0000 </r>
       <r>    8.7483    0.0000 </r>
       <r>    8.7506    0.0000 </r>
       <r>    8.7521    0.0000 </r>
       <r>    8.7684    0.0000 </r>
       <r>    8.7711    0.0000 </r>
       <r>    8.7714    0.0000 </r>
       <r>    8.7740    0.0000 </r>
       <r>    9.4152    0.0000 </r>
       <r>    9.4152    0.0000 </r>
       <r>    9.4868    0.0000 </r>
       <r>    9.4882    0.0000 </r>
       <r>    9.4882    0.0000 </r>
       <r>    9.4897    0.0000 </r>
       <r>    9.8128    0.0000 </r>
       <r>    9.8156    0.0000 </r>
       <r>    9.8156    0.0000 </r>
       <r>    9.8185    0.0000 </r>
       <r>   10.2878    0.0000 </r>
       <r>   10.2895    0.0000 </r>
       <r>   10.2900    0.0000 </r>
      </set>
      <set comment="kpoint 4">
       <r>   -2.9847    1.0000 </r>
       <r>   -1.8556    1.0000 </r>
       <r>   -0.7357    1.0000 </r>
       <r>   -0.7356    1.0000 </r>
       <r>   -0.7356    1.0000 </r>
       <r>   -0.7356    1.0000 </r>
       <r>    0.3725    1.0000 </r>
       <r>    0.3757    1.0000 </r>
       <r>    0.3757    1.0000 </r>
       <r>    0.3757    1.0000 </r>
       <r>    0.3778    1.0000 </r>
       <r>    1.4784    1.0000 </r>
       <r>    1.4784    1.0000 </r>
       <r>    1.4784    1.0000 </r>
       <r>    1.4784    1.0000 </r>
       <r>    2.5682    1.0000 </r>
       <r>    2.5701    1.0000 </r>
       <r>    2.5701    1.0000 </r>
       <r>    2.5711    1.0000 </r>
       <r>    2.5718    1.0000 </r>
       <r>    2.5728    1.0000 </r>
       <r>    2.5728    1.0000 </r>
       <r>    2.5748    1.0000 </r>
       <r>    3.6194    1.0000 </r>
       <r>    4.7521    1.0000 </r>
       <r>    4.7521    1.0000 </r>
       <r>    4.7521    1.0000 </r>
       <r>    4.7521    1.0000 </r>
       <r>    5.2234    1.0000 </r>
       <r>    5.2234    1.0000 </r>
       <r>    5.7521    1.0000 </r>
       <r>    5.7521    1.0000 </r>
       <r>    5.7521    1.0000 </r>
       <r>    5.7521    1.0000 </r>
       <r>    6.2628    1.0000 </r>
       <r>    6.2628    1.0000 </r>
       <r>    6.5584    1.0000 </r>
       <r>    6.5584    1.0000 </r>
       <r>    7.3042    1.0000 </r>
       <r>    7.3042    1.0000 </r>
       <r>    7.3042    1.0000 </r>
       <r>    7.3042    1.0000 </r>
       <r>    7.6093    1.0000 </r>
       <r>    7.6093    1.0000 </r>
       <r>    7.8963    0.9998 </r>
       <r>    7.8963    0.9998 </r>
       <r>    7.8963    0.9998 </r>
       <r>    7.8963    0.9998 </r>
       <r>    8.1412    0.0003 </r>
       <r>    8.3449    0.0000 </r>
       <r>    8.3449    0.0000 </r>
       <r>    8.3471    0.0000 </r>
       <r>    8.3471    0.0000 </r>
       <r>    8.3496    0.0000 </r>
       <r>    8.3496    0.0000 </r>
       <r>    8.7238    0.0000 </r>
       <r>    8.7238    0.0000 </r>
       <r>    8.7238    0.0000 </r>
       <r>    8.7238    0.0000 </r>
       <r>    9.8573    0.0000 </r>
       <r>    9.8573    0.0000 </r>
       <r>    9.8573    0.0000 </r>
       <r>    9.8573    0.0000 </r>
       <r>    9.9628    0.0000 </r>
       <r>    9.9628    0.0000 </r>
       <r>   10.4035    0.0000 </r>
       <r>   10.4035    0.0000 </r>
       <r>   10.4036    0.0000 </r>
       <r>   10.4051    0.0000 </r>
       <r>   10.4361    0.0000 </r>
       <r>   10.4362    0.0000 </r>
       <r>   10.4362    0.0000 </r>
      </set>
      <set comment="kpoint 5">
       <r>   -2.9847    1.0000 </r>
       <r>   -1.8556    1.0000 </r>
       <r>   -0.7386    1.0000 </r>
       <r>   -0.7356    1.0000 </r>
       <r>   -0.7356    1.0000 </r>
       <r>   -0.7327    1.0000 </r>
       <r>    0.3726    1.0000 </r>
       <r>    0.3747    1.0000 </r>
       <r>    0.3757    1.0000 </r>
       <r>    0.3757    1.0000 </r>
       <r>    0.3788    1.0000 </r>
       <r>    1.4762    1.0000 </r>
       <r>    1.4772    1.0000 </r>
       <r>    1.4796    1.0000 </r>
       <r>    1.4806    1.0000 </r>
       <r>    2.5677    1.0000 </r>
       <r>    2.5699    1.0000 </r>
       <r>    2.5703    1.0000 </r>
       <r>    2.5711    1.0000 </r>
       <r>    2.5713    1.0000 </r>
       <r>    2.5730    1.0000 </r>
       <r>    2.5732    1.0000 </r>
       <r>    2.5749    1.0000 </r>
       <r>    3.6194    1.0000 </r>
       <r>    4.7498    1.0000 </r>
       <r>    4.7509    1.0000 </r>
       <r>    4.7533    1.0000 </r>
       <r>    4.7543    1.0000 </r>
       <r>    5.2234    1.0000 </r>
       <r>    5.2234    1.0000 </r>
       <r>    5.7490    1.0000 </r>
       <r>    5.7521    1.0000 </r>
       <r>    5.7521    1.0000 </r>
       <r>    5.7552    1.0000 </r>
       <r>    6.2628    1.0000 </r>
       <r>    6.2628    1.0000 </r>
       <r>    6.5584    1.0000 </r>
       <r>    6.5584    1.0000 </r>
       <r>    7.3014    1.0000 </r>
       <r>    7.3042    1.0000 </r>
       <r>    7.3042    1.0000 </r>
       <r>    7.3069    1.0000 </r>
       <r>    7.6093    1.0000 </r>
       <r>    7.6093    1.0000 </r>
       <r>    7.8938    0.9998 </r>
       <r>    7.8951    0.9998 </r>
       <r>    7.8975    0.9997 </r>
       <r>    7.8987    0.9997 </r>
       <r>    8.1412    0.0003 </r>
       <r>    8.3440    0.0000 </r>
       <r>    8.3471    0.0000 </r>
       <r>    8.3472    0.0000 </r>
       <r>    8.3473    0.0000 </r>
       <r>    8.3473    0.0000 </r>
       <r>    8.3504    0.0000 </r>
       <r>    8.7214    0.0000 </r>
       <r>    8.7238    0.0000 </r>
       <r>    8.7238    0.0000 </r>
       <r>    8.7262    0.0000 </r>
       <r>    9.8550    0.0000 </r>
       <r>    9.8573    0.0000 </r>
       <r>    9.8573    0.0000 </r>
       <r>    9.8596    0.0000 </r>
       <r>    9.9628    0.0000 </r>
       <r>    9.9628    0.0000 </r>
       <r>   10.4012    0.0000 </r>
       <r>   10.4036    0.0000 </r>
       <r>   10.4037    0.0000 </r>
       <r>   10.4058    0.0000 </r>
       <r>   10.4339    0.0000 </r>
       <r>   10.4363    0.0000 </r>
       <r>   10.4367    0.0000 </r>
      </set>
      <set comment="kpoint 6">
       <r>   -2.8077    1.0000 </r>
       <r>   -2.2427    1.0000 </r>
       <r>   -0.5615    1.0000 </r>
       <r>   -0.5614    1.0000 </r>
       <r>   -0.5614    1.0000 </r>
       <r>   -0.5614    1.0000 </r>
       <r>   -0.0053    1.0000 </r>
       <r>   -0.0053    1.0000 </r>
       <r>   -0.0053    1.0000 </r>
       <r>   -0.0053    1.0000 </r>
       <r>    1.0974    1.0000 </r>
       <r>    1.6500    1.0000 </r>
       <r>    1.6500    1.0000 </r>
       <r>    1.6500    1.0000 </r>
       <r>    1.6500    1.0000 </r>
       <r>    2.1974    1.0000 </r>
       <r>    2.1974    1.0000 </r>
       <r>    2.1974    1.0000 </r>
       <r>    2.1974    1.0000 </r>
       <r>    2.7270    1.0000 </r>
       <r>    3.2821    1.0000 </r>
       <r>    3.2821    1.0000 </r>
       <r>    3.2821    1.0000 </r>
       <r>    3.2822    1.0000 </r>
       <r>    4.8812    1.0000 </r>
       <r>    4.8812    1.0000 </r>
       <r>    4.8812    1.0000 </r>
       <r>    4.8812    1.0000 </r>
       <r>    5.3856    1.0000 </r>
       <r>    5.3856    1.0000 </r>
       <r>    5.4536    1.0000 </r>
       <r>    5.4536    1.0000 </r>
       <r>    5.4536    1.0000 </r>
       <r>    5.4536    1.0000 </r>
       <r>    5.9053    1.0000 </r>
       <r>    5.9053    1.0000 </r>
       <r>    6.7283    1.0000 </r>
       <r>    6.7283    1.0000 </r>
       <r>    7.0351    1.0000 </r>
       <r>    7.0351    1.0000 </r>
       <r>    7.0351    1.0000 </r>
       <r>    7.0351    1.0000 </r>
       <r>    7.2606    1.0000 </r>
       <r>    7.2606    1.0000 </r>
       <r>    7.4671    1.0000 </r>
       <r>    7.4671    1.0000 </r>
       <r>    7.4671    1.0000 </r>
       <r>    7.4671    1.0000 </r>
       <r>    7.9885    0.8168 </r>
       <r>    7.9885    0.8167 </r>
       <r>    7.9885    0.8167 </r>
       <r>    7.9885    0.8167 </r>
       <r>    8.9294    0.0000 </r>
       <r>    8.9294    0.0000 </r>
       <r>    8.9294    0.0000 </r>
       <r>    8.9294    0.0000 </r>
       <r>    9.0325    0.0000 </r>
       <r>    9.0325    0.0000 </r>
       <r>    9.3402    0.0000 </r>
       <r>    9.4870    0.0000 </r>
       <r>    9.4871    0.0000 </r>
       <r>    9.4871    0.0000 </r>
       <r>    9.4871    0.0000 </r>
       <r>   10.6001    0.0000 </r>
       <r>   10.6001    0.0000 </r>
       <r>   10.6096    0.0000 </r>
       <r>   10.6096    0.0000 </r>
       <r>   11.1221    0.0000 </r>
       <r>   11.1221    0.0000 </r>
       <r>   11.1221    0.0000 </r>
       <r>   11.1221    0.0000 </r>
       <r>   11.5360    0.0000 </r>
      </set>
      <set comment="kpoint 7">
       <r>   -2.8077    1.0000 </r>
       <r>   -2.2427    1.0000 </r>
       <r>   -0.5644    1.0000 </r>
       <r>   -0.5614    1.0000 </r>
       <r>   -0.5614    1.0000 </r>
       <r>   -0.5585    1.0000 </r>
       <r>   -0.0083    1.0000 </r>
       <r>   -0.0053    1.0000 </r>
       <r>   -0.0053    1.0000 </r>
       <r>   -0.0024    1.0000 </r>
       <r>    1.0974    1.0000 </r>
       <r>    1.6478    1.0000 </r>
       <r>    1.6488    1.0000 </r>
       <r>    1.6512    1.0000 </r>
       <r>    1.6522    1.0000 </r>
       <r>    2.1952    1.0000 </r>
       <r>    2.1962    1.0000 </r>
       <r>    2.1986    1.0000 </r>
       <r>    2.1996    1.0000 </r>
       <r>    2.7270    1.0000 </r>
       <r>    3.2791    1.0000 </r>
       <r>    3.2821    1.0000 </r>
       <r>    3.2821    1.0000 </r>
       <r>    3.2851    1.0000 </r>
       <r>    4.8781    1.0000 </r>
       <r>    4.8812    1.0000 </r>
       <r>    4.8812    1.0000 </r>
       <r>    4.8843    1.0000 </r>
       <r>    5.3856    1.0000 </r>
       <r>    5.3856    1.0000 </r>
       <r>    5.4513    1.0000 </r>
       <r>    5.4524    1.0000 </r>
       <r>    5.4548    1.0000 </r>
       <r>    5.4559    1.0000 </r>
       <r>    5.9053    1.0000 </r>
       <r>    5.9053    1.0000 </r>
       <r>    6.7282    1.0000 </r>
       <r>    6.7283    1.0000 </r>
       <r>    7.0327    1.0000 </r>
       <r>    7.0339    1.0000 </r>
       <r>    7.0363    1.0000 </r>
       <r>    7.0374    1.0000 </r>
       <r>    7.2606    1.0000 </r>
       <r>    7.2606    1.0000 </r>
       <r>    7.4643    1.0000 </r>
       <r>    7.4671    1.0000 </r>
       <r>    7.4671    1.0000 </r>
       <r>    7.4698    1.0000 </r>
       <r>    7.9857    0.8369 </r>
       <r>    7.9885    0.8168 </r>
       <r>    7.9885    0.8166 </r>
       <r>    7.9913    0.7950 </r>
       <r>    8.9270    0.0000 </r>
       <r>    8.9294    0.0000 </r>
       <r>    8.9294    0.0000 </r>
       <r>    8.9317    0.0000 </r>
       <r>    9.0325    0.0000 </r>
       <r>    9.0326    0.0000 </r>
       <r>    9.3402    0.0000 </r>
       <r>    9.4848    0.0000 </r>
       <r>    9.4870    0.0000 </r>
       <r>    9.4871    0.0000 </r>
       <r>    9.4893    0.0000 </r>
       <r>   10.5999    0.0000 </r>
       <r>   10.6001    0.0000 </r>
       <r>   10.6096    0.0000 </r>
       <r>   10.6098    0.0000 </r>
       <r>   11.1193    0.0000 </r>
       <r>   11.1221    0.0000 </r>
       <r>   11.1221    0.0000 </r>
       <r>   11.1250    0.0000 </r>
       <r>   11.5360    0.0000 </r>
      </set>
      <set comment="kpoint 8">
       <r>   -2.5618    1.0000 </r>
       <r>   -2.5587    1.0000 </r>
       <r>   -0.3220    1.0000 </r>
       <r>   -0.3188    1.0000 </r>
       <r>   -0.3188    1.0000 </r>
       <r>   -0.3180    1.0000 </r>
       <r>   -0.3177    1.0000 </r>
       <r>   -0.3169    1.0000 </r>
       <r>   -0.3169    1.0000 </r>
       <r>   -0.3138    1.0000 </r>
       <r>    1.8807    1.0000 </r>
       <r>    1.8831    1.0000 </r>
       <r>    1.8880    1.0000 </r>
       <r>    1.8885    1.0000 </r>
       <r>    1.8885    1.0000 </r>
       <r>    1.8893    1.0000 </r>
       <r>    1.8903    1.0000 </r>
       <r>    1.8912    1.0000 </r>
       <r>    1.8912    1.0000 </r>
       <r>    1.8936    1.0000 </r>
       <r>    4.0530    1.0000 </r>
       <r>    4.0530    1.0000 </r>
       <r>    4.0530    1.0000 </r>
       <r>    4.0537    1.0000 </r>
       <r>    4.0540    1.0000 </r>
       <r>    4.0547    1.0000 </r>
       <r>    4.0547    1.0000 </r>
       <r>    4.0547    1.0000 </r>
       <r>    5.6112    1.0000 </r>
       <r>    5.6112    1.0000 </r>
       <r>    5.6145    1.0000 </r>
       <r>    5.6145    1.0000 </r>
       <r>    6.2154    1.0000 </r>
       <r>    6.2154    1.0000 </r>
       <r>    6.2159    1.0000 </r>
       <r>    6.2162    1.0000 </r>
       <r>    6.2167    1.0000 </r>
       <r>    6.2170    1.0000 </r>
       <r>    6.2175    1.0000 </r>
       <r>    6.2175    1.0000 </r>
       <r>    6.9616    1.0000 </r>
       <r>    6.9627    1.0000 </r>
       <r>    6.9646    1.0000 </r>
       <r>    6.9657    1.0000 </r>
       <r>    7.6927    1.0000 </r>
       <r>    7.6927    1.0000 </r>
       <r>    7.6936    1.0000 </r>
       <r>    7.6950    1.0000 </r>
       <r>    7.6953    1.0000 </r>
       <r>    7.6967    1.0000 </r>
       <r>    7.6976    1.0000 </r>
       <r>    7.6976    1.0000 </r>
       <r>    9.1765    0.0000 </r>
       <r>    9.1775    0.0000 </r>
       <r>    9.1775    0.0000 </r>
       <r>    9.1776    0.0000 </r>
       <r>    9.1800    0.0000 </r>
       <r>    9.1801    0.0000 </r>
       <r>    9.1801    0.0000 </r>
       <r>    9.1811    0.0000 </r>
       <r>    9.7824    0.0000 </r>
       <r>    9.7824    0.0000 </r>
       <r>    9.7846    0.0000 </r>
       <r>    9.7846    0.0000 </r>
       <r>   10.6124    0.0000 </r>
       <r>   10.6137    0.0000 </r>
       <r>   11.3120    0.0000 </r>
       <r>   11.3126    0.0000 </r>
       <r>   11.3138    0.0000 </r>
       <r>   11.3143    0.0000 </r>
       <r>   11.8729    0.0000 </r>
       <r>   11.8740    0.0000 </r>
      </set>
      <set comment="kpoint 9">
       <r>   -2.5602    1.0000 </r>
       <r>   -2.5602    1.0000 </r>
       <r>   -0.3232    1.0000 </r>
       <r>   -0.3184    1.0000 </r>
       <r>   -0.3179    1.0000 </r>
       <r>   -0.3179    1.0000 </r>
       <r>   -0.3179    1.0000 </r>
       <r>   -0.3179    1.0000 </r>
       <r>   -0.3173    1.0000 </r>
       <r>   -0.3126    1.0000 </r>
       <r>    1.8816    1.0000 </r>
       <r>    1.8828    1.0000 </r>
       <r>    1.8869    1.0000 </r>
       <r>    1.8877    1.0000 </r>
       <r>    1.8893    1.0000 </r>
       <r>    1.8896    1.0000 </r>
       <r>    1.8900    1.0000 </r>
       <r>    1.8905    1.0000 </r>
       <r>    1.8919    1.0000 </r>
       <r>    1.8941    1.0000 </r>
       <r>    4.0505    1.0000 </r>
       <r>    4.0510    1.0000 </r>
       <r>    4.0538    1.0000 </r>
       <r>    4.0538    1.0000 </r>
       <r>    4.0538    1.0000 </r>
       <r>    4.0538    1.0000 </r>
       <r>    4.0566    1.0000 </r>
       <r>    4.0571    1.0000 </r>
       <r>    5.6129    1.0000 </r>
       <r>    5.6129    1.0000 </r>
       <r>    5.6129    1.0000 </r>
       <r>    5.6129    1.0000 </r>
       <r>    6.2134    1.0000 </r>
       <r>    6.2149    1.0000 </r>
       <r>    6.2151    1.0000 </r>
       <r>    6.2154    1.0000 </r>
       <r>    6.2175    1.0000 </r>
       <r>    6.2178    1.0000 </r>
       <r>    6.2180    1.0000 </r>
       <r>    6.2195    1.0000 </r>
       <r>    6.9636    1.0000 </r>
       <r>    6.9637    1.0000 </r>
       <r>    6.9637    1.0000 </r>
       <r>    6.9637    1.0000 </r>
       <r>    7.6901    1.0000 </r>
       <r>    7.6947    1.0000 </r>
       <r>    7.6951    1.0000 </r>
       <r>    7.6951    1.0000 </r>
       <r>    7.6952    1.0000 </r>
       <r>    7.6952    1.0000 </r>
       <r>    7.6956    1.0000 </r>
       <r>    7.7002    1.0000 </r>
       <r>    9.1747    0.0000 </r>
       <r>    9.1783    0.0000 </r>
       <r>    9.1788    0.0000 </r>
       <r>    9.1788    0.0000 </r>
       <r>    9.1788    0.0000 </r>
       <r>    9.1788    0.0000 </r>
       <r>    9.1793    0.0000 </r>
       <r>    9.1829    0.0000 </r>
       <r>    9.7835    0.0000 </r>
       <r>    9.7835    0.0000 </r>
       <r>    9.7835    0.0000 </r>
       <r>    9.7835    0.0000 </r>
       <r>   10.6130    0.0000 </r>
       <r>   10.6130    0.0000 </r>
       <r>   11.3131    0.0000 </r>
       <r>   11.3132    0.0000 </r>
       <r>   11.3132    0.0000 </r>
       <r>   11.3132    0.0000 </r>
       <r>   11.8722    0.0000 </r>
       <r>   11.8735    0.0000 </r>
      </set>
      <set comment="kpoint 10">
       <r>   -3.0556    1.0000 </r>
       <r>   -1.3657    1.0000 </r>
       <r>   -1.3633    1.0000 </r>
       <r>   -0.8054    1.0000 </r>
       <r>   -0.8054    1.0000 </r>
       <r>   -0.2499    1.0000 </r>
       <r>   -0.2475    1.0000 </r>
       <r>    0.3066    1.0000 </r>
       <r>    0.8575    1.0000 </r>
       <r>    0.8585    1.0000 </r>
       <r>    0.8600    1.0000 </r>
       <r>    0.8609    1.0000 </r>
       <r>    1.4089    1.0000 </r>
       <r>    1.4099    1.0000 </r>
       <r>    1.9561    1.0000 </r>
       <r>    1.9570    1.0000 </r>
       <r>    1.9585    1.0000 </r>
       <r>    1.9594    1.0000 </r>
       <r>    2.5032    1.0000 </r>
       <r>    2.5038    1.0000 </r>
       <r>    2.5042    1.0000 </r>
       <r>    3.4867    1.0000 </r>
       <r>    3.4867    1.0000 </r>
       <r>    3.7094    1.0000 </r>
       <r>    3.7094    1.0000 </r>
       <r>    4.5522    1.0000 </r>
       <r>    4.5531    1.0000 </r>
       <r>    4.6853    1.0000 </r>
       <r>    4.6853    1.0000 </r>
       <r>    5.1585    1.0000 </r>
       <r>    6.1336    1.0000 </r>
       <r>    6.1360    1.0000 </r>
       <r>    6.4900    1.0000 </r>
       <r>    6.5715    1.0000 </r>
       <r>    6.5715    1.0000 </r>
       <r>    6.7168    1.0000 </r>
       <r>    6.7195    1.0000 </r>
       <r>    6.7566    1.0000 </r>
       <r>    6.7566    1.0000 </r>
       <r>    7.0900    1.0000 </r>
       <r>    7.0909    1.0000 </r>
       <r>    7.1588    1.0000 </r>
       <r>    7.1606    1.0000 </r>
       <r>    7.7590    1.0000 </r>
       <r>    7.7617    1.0000 </r>
       <r>    8.1285    0.0011 </r>
       <r>    8.1303    0.0009 </r>
       <r>    8.2552    0.0000 </r>
       <r>    8.2562    0.0000 </r>
       <r>    8.2576    0.0000 </r>
       <r>    8.2587    0.0000 </r>
       <r>    8.2820    0.0000 </r>
       <r>    8.5171    0.0000 </r>
       <r>    8.5197    0.0000 </r>
       <r>    8.9235    0.0000 </r>
       <r>    8.9235    0.0000 </r>
       <r>    9.3057    0.0000 </r>
       <r>    9.3066    0.0000 </r>
       <r>    9.3070    0.0000 </r>
       <r>    9.3081    0.0000 </r>
       <r>    9.3251    0.0000 </r>
       <r>    9.3270    0.0000 </r>
       <r>    9.5170    0.0000 </r>
       <r>    9.5177    0.0000 </r>
       <r>    9.6794    0.0000 </r>
       <r>    9.6794    0.0000 </r>
       <r>    9.7945    0.0000 </r>
       <r>    9.9220    0.0000 </r>
       <r>    9.9241    0.0000 </r>
       <r>   10.3707    0.0000 </r>
       <r>   10.8440    0.0000 </r>
       <r>   10.8462    0.0000 </r>
      </set>
      <set comment="kpoint 11">
       <r>   -3.0556    1.0000 </r>
       <r>   -1.3645    1.0000 </r>
       <r>   -1.3645    1.0000 </r>
       <r>   -0.8071    1.0000 </r>
       <r>   -0.8037    1.0000 </r>
       <r>   -0.2487    1.0000 </r>
       <r>   -0.2487    1.0000 </r>
       <r>    0.3066    1.0000 </r>
       <r>    0.8565    1.0000 </r>
       <r>    0.8586    1.0000 </r>
       <r>    0.8599    1.0000 </r>
       <r>    0.8619    1.0000 </r>
       <r>    1.4094    1.0000 </r>
       <r>    1.4094    1.0000 </r>
       <r>    1.9550    1.0000 </r>
       <r>    1.9571    1.0000 </r>
       <r>    1.9584    1.0000 </r>
       <r>    1.9605    1.0000 </r>
       <r>    2.5021    1.0000 </r>
       <r>    2.5036    1.0000 </r>
       <r>    2.5056    1.0000 </r>
       <r>    3.4867    1.0000 </r>
       <r>    3.4867    1.0000 </r>
       <r>    3.7094    1.0000 </r>
       <r>    3.7095    1.0000 </r>
       <r>    4.5527    1.0000 </r>
       <r>    4.5527    1.0000 </r>
       <r>    4.6836    1.0000 </r>
       <r>    4.6871    1.0000 </r>
       <r>    5.1585    1.0000 </r>
       <r>    6.1348    1.0000 </r>
       <r>    6.1348    1.0000 </r>
       <r>    6.4900    1.0000 </r>
       <r>    6.5715    1.0000 </r>
       <r>    6.5715    1.0000 </r>
       <r>    6.7181    1.0000 </r>
       <r>    6.7182    1.0000 </r>
       <r>    6.7566    1.0000 </r>
       <r>    6.7567    1.0000 </r>
       <r>    7.0905    1.0000 </r>
       <r>    7.0905    1.0000 </r>
       <r>    7.1597    1.0000 </r>
       <r>    7.1597    1.0000 </r>
       <r>    7.7604    1.0000 </r>
       <r>    7.7604    1.0000 </r>
       <r>    8.1294    0.0010 </r>
       <r>    8.1294    0.0010 </r>
       <r>    8.2539    0.0000 </r>
       <r>    8.2561    0.0000 </r>
       <r>    8.2578    0.0000 </r>
       <r>    8.2597    0.0000 </r>
       <r>    8.2821    0.0000 </r>
       <r>    8.5184    0.0000 </r>
       <r>    8.5184    0.0000 </r>
       <r>    8.9235    0.0000 </r>
       <r>    8.9235    0.0000 </r>
       <r>    9.3045    0.0000 </r>
       <r>    9.3052    0.0000 </r>
       <r>    9.3085    0.0000 </r>
       <r>    9.3089    0.0000 </r>
       <r>    9.3260    0.0000 </r>
       <r>    9.3263    0.0000 </r>
       <r>    9.5174    0.0000 </r>
       <r>    9.5174    0.0000 </r>
       <r>    9.6794    0.0000 </r>
       <r>    9.6794    0.0000 </r>
       <r>    9.7945    0.0000 </r>
       <r>    9.9230    0.0000 </r>
       <r>    9.9230    0.0000 </r>
       <r>   10.3707    0.0000 </r>
       <r>   10.8438    0.0000 </r>
       <r>   10.8518    0.0000 </r>
      </set>
      <set comment="kpoint 12">
       <r>   -2.9493    1.0000 </r>
       <r>   -1.8205    1.0000 </r>
       <r>   -1.2595    1.0000 </r>
       <r>   -0.7008    1.0000 </r>
       <r>   -0.7008    1.0000 </r>
       <r>   -0.1449    1.0000 </r>
       <r>   -0.1436    1.0000 </r>
       <r>    0.4078    1.0000 </r>
       <r>    0.4103    1.0000 </r>
       <r>    0.4117    1.0000 </r>
       <r>    0.9618    1.0000 </r>
       <r>    0.9627    1.0000 </r>
       <r>    0.9632    1.0000 </r>
       <r>    2.0580    1.0000 </r>
       <r>    2.0601    1.0000 </r>
       <r>    2.0603    1.0000 </r>
       <r>    2.0612    1.0000 </r>
       <r>    2.0625    1.0000 </r>
       <r>    2.6052    1.0000 </r>
       <r>    2.6052    1.0000 </r>
       <r>    3.1438    1.0000 </r>
       <r>    3.1445    1.0000 </r>
       <r>    3.1490    1.0000 </r>
       <r>    3.6530    1.0000 </r>
       <r>    4.2519    1.0000 </r>
       <r>    4.2519    1.0000 </r>
       <r>    4.6520    1.0000 </r>
       <r>    5.2558    1.0000 </r>
       <r>    5.2568    1.0000 </r>
       <r>    5.3216    1.0000 </r>
       <r>    5.3216    1.0000 </r>
       <r>    5.7084    1.0000 </r>
       <r>    5.7800    1.0000 </r>
       <r>    5.7800    1.0000 </r>
       <r>    6.2953    1.0000 </r>
       <r>    6.3063    1.0000 </r>
       <r>    6.5922    1.0000 </r>
       <r>    6.7803    1.0000 </r>
       <r>    6.7803    1.0000 </r>
       <r>    6.8158    1.0000 </r>
       <r>    7.1907    1.0000 </r>
       <r>    7.4004    1.0000 </r>
       <r>    7.4004    1.0000 </r>
       <r>    7.5344    1.0000 </r>
       <r>    7.8294    1.0000 </r>
       <r>    7.8295    1.0000 </r>
       <r>    7.8573    1.0000 </r>
       <r>    7.8589    1.0000 </r>
       <r>    7.9734    0.9081 </r>
       <r>    8.1739    0.0000 </r>
       <r>    8.2093    0.0000 </r>
       <r>    8.2653    0.0000 </r>
       <r>    8.3799    0.0000 </r>
       <r>    8.4568    0.0000 </r>
       <r>    8.4568    0.0000 </r>
       <r>    8.9018    0.0000 </r>
       <r>    9.1518    0.0000 </r>
       <r>    9.2871    0.0000 </r>
       <r>    9.2871    0.0000 </r>
       <r>    9.3610    0.0000 </r>
       <r>    9.9284    0.0000 </r>
       <r>    9.9284    0.0000 </r>
       <r>    9.9464    0.0000 </r>
       <r>   10.0114    0.0000 </r>
       <r>   10.0442    0.0000 </r>
       <r>   10.4125    0.0000 </r>
       <r>   10.4343    0.0000 </r>
       <r>   10.4343    0.0000 </r>
       <r>   10.4627    0.0000 </r>
       <r>   10.4627    0.0000 </r>
       <r>   10.5043    0.0000 </r>
       <r>   10.9208    0.0000 </r>
      </set>
      <set comment="kpoint 13">
       <r>   -2.9493    1.0000 </r>
       <r>   -1.8205    1.0000 </r>
       <r>   -1.2595    1.0000 </r>
       <r>   -0.7025    1.0000 </r>
       <r>   -0.6991    1.0000 </r>
       <r>   -0.1445    1.0000 </r>
       <r>   -0.1440    1.0000 </r>
       <r>    0.4082    1.0000 </r>
       <r>    0.4095    1.0000 </r>
       <r>    0.4121    1.0000 </r>
       <r>    0.9608    1.0000 </r>
       <r>    0.9623    1.0000 </r>
       <r>    0.9645    1.0000 </r>
       <r>    2.0581    1.0000 </r>
       <r>    2.0593    1.0000 </r>
       <r>    2.0599    1.0000 </r>
       <r>    2.0619    1.0000 </r>
       <r>    2.0630    1.0000 </r>
       <r>    2.6035    1.0000 </r>
       <r>    2.6069    1.0000 </r>
       <r>    3.1427    1.0000 </r>
       <r>    3.1460    1.0000 </r>
       <r>    3.1485    1.0000 </r>
       <r>    3.6530    1.0000 </r>
       <r>    4.2502    1.0000 </r>
       <r>    4.2536    1.0000 </r>
       <r>    4.6520    1.0000 </r>
       <r>    5.2557    1.0000 </r>
       <r>    5.2569    1.0000 </r>
       <r>    5.3199    1.0000 </r>
       <r>    5.3234    1.0000 </r>
       <r>    5.7084    1.0000 </r>
       <r>    5.7783    1.0000 </r>
       <r>    5.7817    1.0000 </r>
       <r>    6.2951    1.0000 </r>
       <r>    6.3065    1.0000 </r>
       <r>    6.5921    1.0000 </r>
       <r>    6.7784    1.0000 </r>
       <r>    6.7820    1.0000 </r>
       <r>    6.8159    1.0000 </r>
       <r>    7.1907    1.0000 </r>
       <r>    7.3985    1.0000 </r>
       <r>    7.4022    1.0000 </r>
       <r>    7.5344    1.0000 </r>
       <r>    7.8275    1.0000 </r>
       <r>    7.8313    1.0000 </r>
       <r>    7.8581    1.0000 </r>
       <r>    7.8582    1.0000 </r>
       <r>    7.9734    0.9082 </r>
       <r>    8.1739    0.0000 </r>
       <r>    8.2093    0.0000 </r>
       <r>    8.2653    0.0000 </r>
       <r>    8.3799    0.0000 </r>
       <r>    8.4550    0.0000 </r>
       <r>    8.4587    0.0000 </r>
       <r>    8.9018    0.0000 </r>
       <r>    9.1518    0.0000 </r>
       <r>    9.2858    0.0000 </r>
       <r>    9.2883    0.0000 </r>
       <r>    9.3610    0.0000 </r>
       <r>    9.9264    0.0000 </r>
       <r>    9.9302    0.0000 </r>
       <r>    9.9466    0.0000 </r>
       <r>   10.0114    0.0000 </r>
       <r>   10.0442    0.0000 </r>
       <r>   10.4124    0.0000 </r>
       <r>   10.4328    0.0000 </r>
       <r>   10.4359    0.0000 </r>
       <r>   10.4615    0.0000 </r>
       <r>   10.4641    0.0000 </r>
       <r>   10.5042    0.0000 </r>
       <r>   10.9229    0.0000 </r>
      </set>
      <set comment="kpoint 14">
       <r>   -2.9493    1.0000 </r>
       <r>   -1.8205    1.0000 </r>
       <r>   -1.2595    1.0000 </r>
       <r>   -0.7008    1.0000 </r>
       <r>   -0.7008    1.0000 </r>
       <r>   -0.1456    1.0000 </r>
       <r>   -0.1430    1.0000 </r>
       <r>    0.4092    1.0000 </r>
       <r>    0.4103    1.0000 </r>
       <r>    0.4103    1.0000 </r>
       <r>    0.9610    1.0000 </r>
       <r>    0.9627    1.0000 </r>
       <r>    0.9639    1.0000 </r>
       <r>    2.0581    1.0000 </r>
       <r>    2.0597    1.0000 </r>
       <r>    2.0602    1.0000 </r>
       <r>    2.0617    1.0000 </r>
       <r>    2.0626    1.0000 </r>
       <r>    2.6052    1.0000 </r>
       <r>    2.6052    1.0000 </r>
       <r>    3.1445    1.0000 </r>
       <r>    3.1445    1.0000 </r>
       <r>    3.1483    1.0000 </r>
       <r>    3.6530    1.0000 </r>
       <r>    4.2519    1.0000 </r>
       <r>    4.2519    1.0000 </r>
       <r>    4.6521    1.0000 </r>
       <r>    5.2558    1.0000 </r>
       <r>    5.2567    1.0000 </r>
       <r>    5.3216    1.0000 </r>
       <r>    5.3216    1.0000 </r>
       <r>    5.7084    1.0000 </r>
       <r>    5.7800    1.0000 </r>
       <r>    5.7800    1.0000 </r>
       <r>    6.2953    1.0000 </r>
       <r>    6.3063    1.0000 </r>
       <r>    6.5921    1.0000 </r>
       <r>    6.7802    1.0000 </r>
       <r>    6.7803    1.0000 </r>
       <r>    6.8158    1.0000 </r>
       <r>    7.1907    1.0000 </r>
       <r>    7.4003    1.0000 </r>
       <r>    7.4004    1.0000 </r>
       <r>    7.5344    1.0000 </r>
       <r>    7.8294    1.0000 </r>
       <r>    7.8295    1.0000 </r>
       <r>    7.8565    1.0000 </r>
       <r>    7.8598    1.0000 </r>
       <r>    7.9734    0.9082 </r>
       <r>    8.1739    0.0000 </r>
       <r>    8.2093    0.0000 </r>
       <r>    8.2653    0.0000 </r>
       <r>    8.3799    0.0000 </r>
       <r>    8.4568    0.0000 </r>
       <r>    8.4568    0.0000 </r>
       <r>    8.9018    0.0000 </r>
       <r>    9.1518    0.0000 </r>
       <r>    9.2871    0.0000 </r>
       <r>    9.2871    0.0000 </r>
       <r>    9.3610    0.0000 </r>
       <r>    9.9283    0.0000 </r>
       <r>    9.9284    0.0000 </r>
       <r>    9.9465    0.0000 </r>
       <r>   10.0114    0.0000 </r>
       <r>   10.0442    0.0000 </r>
       <r>   10.4124    0.0000 </r>
       <r>   10.4343    0.0000 </r>
       <r>   10.4344    0.0000 </r>
       <r>   10.4627    0.0000 </r>
       <r>   10.4627    0.0000 </r>
       <r>   10.5042    0.0000 </r>
       <r>   10.9225    0.0000 </r>
      </set>
      <set comment="kpoint 15">
       <r>   -2.7723    1.0000 </r>
       <r>   -2.2075    1.0000 </r>
       <r>   -1.0846    1.0000 </r>
       <r>   -0.5280    1.0000 </r>
       <r>   -0.5266    1.0000 </r>
       <r>   -0.5251    1.0000 </r>
       <r>    0.0278    1.0000 </r>
       <r>    0.0294    1.0000 </r>
       <r>    0.0306    1.0000 </r>
       <r>    0.5828    1.0000 </r>
       <r>    1.1313    1.0000 </r>
       <r>    1.1349    1.0000 </r>
       <r>    1.1354    1.0000 </r>
       <r>    1.6845    1.0000 </r>
       <r>    1.6845    1.0000 </r>
       <r>    2.2311    1.0000 </r>
       <r>    2.2311    1.0000 </r>
       <r>    2.7608    1.0000 </r>
       <r>    2.7733    1.0000 </r>
       <r>    2.7752    1.0000 </r>
       <r>    2.7755    1.0000 </r>
       <r>    3.3159    1.0000 </r>
       <r>    3.3159    1.0000 </r>
       <r>    3.8559    1.0000 </r>
       <r>    4.3801    1.0000 </r>
       <r>    4.8175    1.0000 </r>
       <r>    4.9134    1.0000 </r>
       <r>    4.9134    1.0000 </r>
       <r>    4.9517    1.0000 </r>
       <r>    4.9518    1.0000 </r>
       <r>    5.3461    1.0000 </r>
       <r>    5.4181    1.0000 </r>
       <r>    5.4449    1.0000 </r>
       <r>    5.9377    1.0000 </r>
       <r>    6.0217    1.0000 </r>
       <r>    6.0217    1.0000 </r>
       <r>    6.5366    1.0000 </r>
       <r>    6.5366    1.0000 </r>
       <r>    6.7611    1.0000 </r>
       <r>    6.9415    1.0000 </r>
       <r>    6.9415    1.0000 </r>
       <r>    6.9785    1.0000 </r>
       <r>    7.2814    1.0000 </r>
       <r>    7.3567    1.0000 </r>
       <r>    7.4674    1.0000 </r>
       <r>    7.4674    1.0000 </r>
       <r>    7.4996    1.0000 </r>
       <r>    7.5985    1.0000 </r>
       <r>    7.5985    1.0000 </r>
       <r>    7.8756    1.0000 </r>
       <r>    8.0211    0.4921 </r>
       <r>    8.4445    0.0000 </r>
       <r>    8.5429    0.0000 </r>
       <r>    8.5529    0.0000 </r>
       <r>    8.9909    0.0000 </r>
       <r>    9.0652    0.0000 </r>
       <r>    9.3721    0.0000 </r>
       <r>    9.4572    0.0000 </r>
       <r>    9.5103    0.0000 </r>
       <r>    9.5103    0.0000 </r>
       <r>   10.0414    0.0000 </r>
       <r>   10.0673    0.0000 </r>
       <r>   10.0673    0.0000 </r>
       <r>   10.0920    0.0000 </r>
       <r>   10.6131    0.0000 </r>
       <r>   10.6131    0.0000 </r>
       <r>   10.6317    0.0000 </r>
       <r>   10.6336    0.0000 </r>
       <r>   10.6477    0.0000 </r>
       <r>   11.0843    0.0000 </r>
       <r>   11.1591    0.0000 </r>
       <r>   11.5747    0.0000 </r>
      </set>
      <set comment="kpoint 16">
       <r>   -2.7723    1.0000 </r>
       <r>   -2.2075    1.0000 </r>
       <r>   -1.0846    1.0000 </r>
       <r>   -0.5288    1.0000 </r>
       <r>   -0.5265    1.0000 </r>
       <r>   -0.5244    1.0000 </r>
       <r>    0.0271    1.0000 </r>
       <r>    0.0291    1.0000 </r>
       <r>    0.0315    1.0000 </r>
       <r>    0.5828    1.0000 </r>
       <r>    1.1312    1.0000 </r>
       <r>    1.1337    1.0000 </r>
       <r>    1.1368    1.0000 </r>
       <r>    1.6828    1.0000 </r>
       <r>    1.6862    1.0000 </r>
       <r>    2.2294    1.0000 </r>
       <r>    2.2328    1.0000 </r>
       <r>    2.7608    1.0000 </r>
       <r>    2.7732    1.0000 </r>
       <r>    2.7737    1.0000 </r>
       <r>    2.7770    1.0000 </r>
       <r>    3.3142    1.0000 </r>
       <r>    3.3176    1.0000 </r>
       <r>    3.8559    1.0000 </r>
       <r>    4.3801    1.0000 </r>
       <r>    4.8175    1.0000 </r>
       <r>    4.9116    1.0000 </r>
       <r>    4.9151    1.0000 </r>
       <r>    4.9500    1.0000 </r>
       <r>    4.9535    1.0000 </r>
       <r>    5.3461    1.0000 </r>
       <r>    5.4181    1.0000 </r>
       <r>    5.4449    1.0000 </r>
       <r>    5.9378    1.0000 </r>
       <r>    6.0200    1.0000 </r>
       <r>    6.0235    1.0000 </r>
       <r>    6.5348    1.0000 </r>
       <r>    6.5383    1.0000 </r>
       <r>    6.7611    1.0000 </r>
       <r>    6.9396    1.0000 </r>
       <r>    6.9433    1.0000 </r>
       <r>    6.9786    1.0000 </r>
       <r>    7.2814    1.0000 </r>
       <r>    7.3567    1.0000 </r>
       <r>    7.4655    1.0000 </r>
       <r>    7.4693    1.0000 </r>
[...]
       <r>    2.9727    1.0000 </r>
       <r>    2.9727    1.0000 </r>
       <r>    2.9727    1.0000 </r>
       <r>    2.9728    1.0000 </r>
       <r>    2.9728    1.0000 </r>
       <r>    2.9729    1.0000 </r>
       <r>    2.9729    1.0000 </r>
       <r>    2.9729    1.0000 </r>
       <r>    2.9729    1.0000 </r>
       <r>    2.9729    1.0000 </r>
       <r>    2.9734    1.0000 </r>
       <r>    2.9734    1.0000 </r>
       <r>    2.9737    1.0000 </r>
       <r>    2.9770    1.0000 </r>
       <r>    2.9770    1.0000 </r>
       <r>    2.9832    1.0000 </r>
       <r>    7.2599    1.0000 </r>
       <r>    7.2599    1.0000 </r>
       <r>    7.2619    1.0000 </r>
       <r>    7.2637    1.0000 </r>
       <r>    7.2653    1.0000 </r>
       <r>    7.2657    1.0000 </r>
       <r>    7.2657    1.0000 </r>
       <r>    7.2657    1.0000 </r>
       <r>    7.2659    1.0000 </r>
       <r>    7.2660    1.0000 </r>
       <r>    7.2660    1.0000 </r>
       <r>    7.2660    1.0000 </r>
       <r>    7.2661    1.0000 </r>
       <r>    7.2661    1.0000 </r>
       <r>    7.2661    1.0000 </r>
       <r>    7.2661    1.0000 </r>
       <r>    7.2663    1.0000 </r>
       <r>    7.2663    1.0000 </r>
       <r>    7.2664    1.0000 </r>
       <r>    7.2668    1.0000 </r>
       <r>    7.2683    1.0000 </r>
       <r>    7.2701    1.0000 </r>
       <r>    7.2722    1.0000 </r>
       <r>    7.2722    1.0000 </r>
       <r>   11.4647    0.0000 </r>
       <r>   11.4649    0.0000 </r>
       <r>   11.4649    0.0000 </r>
       <r>   11.4654    0.0000 </r>
       <r>   11.4670    0.0000 </r>
       <r>   11.4675    0.0000 </r>
       <r>   11.4676    0.0000 </r>
       <r>   11.4678    0.0000 </r>
       <r>   11.6834    0.0000 </r>
       <r>   11.6843    0.0000 </r>
       <r>   11.6848    0.0000 </r>
       <r>   11.6850    0.0000 </r>
       <r>   11.6853    0.0000 </r>
       <r>   11.6858    0.0000 </r>
       <r>   11.6863    0.0000 </r>
       <r>   11.6870    0.0000 </r>
      </set>
     </set>
    </set>
   </array>
  </eigenvalues>
  <separator name="orbital magnetization" >
   <v name="MAGDIPOLOUT">      0.00000000      0.00000000      0.00000000</v>
  </separator>
  <dos>
   <i name="efermi">      8.02044050 </i>
   <total>
    <array>
     <dimension dim="1">gridpoints</dimension>
     <dimension dim="2">spin</dimension>
     <field>energy</field>
     <field>total</field>
     <field>integrated</field>
     <set>
      <set comment="spin 1">
       <r>    -3.8780     0.0000     0.0000 </r>
       <r>    -3.8229     0.0000     0.0000 </r>
       <r>    -3.7678     0.0000     0.0000 </r>
       <r>    -3.7126     0.0000     0.0000 </r>
       <r>    -3.6575     0.0000     0.0000 </r>
       <r>    -3.6024     0.0000     0.0000 </r>
       <r>    -3.5473     0.0000     0.0000 </r>
       <r>    -3.4922     0.0000     0.0000 </r>
       <r>    -3.4371     0.0000     0.0000 </r>
       <r>    -3.3820     0.0000     0.0000 </r>
       <r>    -3.3269     0.0000     0.0000 </r>
       <r>    -3.2718     0.0000     0.0000 </r>
       <r>    -3.2167     0.0005     0.0000 </r>
       <r>    -3.1615     0.0219     0.0012 </r>
       <r>    -3.1064     0.2375     0.0143 </r>
       <r>    -3.0513     0.7687     0.0567 </r>
       <r>    -2.9962     1.0347     0.1137 </r>
       <r>    -2.9411     1.6058     0.2022 </r>
       <r>    -2.8860     1.7678     0.2996 </r>
       <r>    -2.8309     1.4619     0.3802 </r>
       <r>    -2.7758     2.4333     0.5143 </r>
       <r>    -2.7207     2.3938     0.6462 </r>
       <r>    -2.6656     2.2561     0.7706 </r>
       <r>    -2.6104     2.8115     0.9255 </r>
       <r>    -2.5553     1.9240     1.0315 </r>
       <r>    -2.5002     3.2171     1.2088 </r>
       <r>    -2.4451     3.4926     1.4013 </r>
       <r>    -2.3900     3.3989     1.5886 </r>
       <r>    -2.3349     3.0568     1.7571 </r>
       <r>    -2.2798     1.9799     1.8662 </r>
       <r>    -2.2247     3.6389     2.0667 </r>
       <r>    -2.1696     4.6905     2.3252 </r>
       <r>    -2.1144     3.6868     2.5284 </r>
       <r>    -2.0593     4.5334     2.7782 </r>
       <r>    -2.0042     2.5982     2.9214 </r>
       <r>    -1.9491     3.3422     3.1056 </r>
       <r>    -1.8940     4.8692     3.3740 </r>
       <r>    -1.8389     4.2434     3.6078 </r>
       <r>    -1.7838     4.1939     3.8389 </r>
       <r>    -1.7287     3.6258     4.0387 </r>
       <r>    -1.6736     5.2486     4.3280 </r>
       <r>    -1.6185     5.6272     4.6381 </r>
       <r>    -1.5633     4.1336     4.8659 </r>
       <r>    -1.5082     5.0585     5.1447 </r>
       <r>    -1.4531     3.0038     5.3102 </r>
       <r>    -1.3980     3.3988     5.4975 </r>
       <r>    -1.3429     6.3458     5.8473 </r>
       <r>    -1.2878     5.6437     6.1583 </r>
       <r>    -1.2327     6.5977     6.5219 </r>
       <r>    -1.1776     5.5760     6.8292 </r>
       <r>    -1.1225     4.3267     7.0676 </r>
       <r>    -1.0674     4.6218     7.3223 </r>
       <r>    -1.0122     4.6155     7.5767 </r>
       <r>    -0.9571     5.9061     7.9022 </r>
       <r>    -0.9020     5.2239     8.1901 </r>
       <r>    -0.8469     4.4956     8.4378 </r>
       <r>    -0.7918     7.6965     8.8620 </r>
       <r>    -0.7367     6.2979     9.2091 </r>
       <r>    -0.6816     6.8057     9.5841 </r>
       <r>    -0.6265     4.5517     9.8350 </r>
       <r>    -0.5714     4.1118    10.0616 </r>
       <r>    -0.5163     7.7111    10.4865 </r>
       <r>    -0.4611     7.2475    10.8859 </r>
       <r>    -0.4060     6.4652    11.2422 </r>
       <r>    -0.3509     4.5831    11.4948 </r>
       <r>    -0.2958     4.3525    11.7347 </r>
       <r>    -0.2407     7.1629    12.1294 </r>
       <r>    -0.1856     6.8364    12.5062 </r>
       <r>    -0.1305     6.8900    12.8859 </r>
       <r>    -0.0754     6.6758    13.2538 </r>
       <r>    -0.0203     6.3005    13.6010 </r>
       <r>     0.0348    10.7585    14.1939 </r>
       <r>     0.0900     7.0355    14.5817 </r>
       <r>     0.1451     4.5886    14.8345 </r>
       <r>     0.2002     5.3363    15.1286 </r>
       <r>     0.2553     3.8263    15.3395 </r>
       <r>     0.3104     7.0242    15.7266 </r>
       <r>     0.3655     8.4833    16.1941 </r>
       <r>     0.4206     9.5856    16.7224 </r>
       <r>     0.4757     7.2219    17.1204 </r>
       <r>     0.5308     6.1549    17.4596 </r>
       <r>     0.5860     8.6005    17.9335 </r>
       <r>     0.6411     7.4451    18.3438 </r>
       <r>     0.6962     7.6161    18.7636 </r>
       <r>     0.7513     8.0074    19.2049 </r>
       <r>     0.8064     4.5244    19.4542 </r>
       <r>     0.8615     7.6819    19.8775 </r>
       <r>     0.9166     8.3890    20.3399 </r>
       <r>     0.9717     9.3591    20.8556 </r>
       <r>     1.0268     7.0977    21.2468 </r>
       <r>     1.0819     5.2913    21.5384 </r>
       <r>     1.1371     8.6553    22.0154 </r>
       <r>     1.1922     7.4753    22.4274 </r>
       <r>     1.2473     8.9187    22.9189 </r>
       <r>     1.3024     9.7064    23.4538 </r>
       <r>     1.3575     5.9404    23.7812 </r>
       <r>     1.4126     9.2256    24.2896 </r>
       <r>     1.4677     9.2829    24.8012 </r>
       <r>     1.5228     8.5417    25.2719 </r>
       <r>     1.5779     8.9583    25.7656 </r>
       <r>     1.6330     6.7357    26.1368 </r>
       <r>     1.6882     9.1344    26.6402 </r>
       <r>     1.7433     8.6110    27.1148 </r>
       <r>     1.7984     7.5951    27.5333 </r>
       <r>     1.8535     5.0372    27.8109 </r>
       <r>     1.9086     5.4455    28.1110 </r>
       <r>     1.9637    11.9263    28.7683 </r>
       <r>     2.0188    10.5763    29.3512 </r>
       <r>     2.0739    10.8588    29.9496 </r>
       <r>     2.1290     9.7715    30.4881 </r>
       <r>     2.1841     8.7454    30.9701 </r>
       <r>     2.2393    11.6372    31.6114 </r>
       <r>     2.2944     8.2791    32.0677 </r>
       <r>     2.3495     6.4175    32.4213 </r>
       <r>     2.4046     5.9967    32.7518 </r>
       <r>     2.4597     8.0083    33.1932 </r>
       <r>     2.5148    12.0126    33.8552 </r>
       <r>     2.5699     8.9840    34.3503 </r>
       <r>     2.6250     9.9893    34.9008 </r>
       <r>     2.6801     7.8421    35.3330 </r>
       <r>     2.7353     7.3018    35.7354 </r>
       <r>     2.7904    11.6465    36.3772 </r>
       <r>     2.8455    11.4433    37.0079 </r>
       <r>     2.9006    12.7576    37.7109 </r>
       <r>     2.9557     8.2618    38.1663 </r>
       <r>     3.0108     5.2036    38.4530 </r>
       <r>     3.0659     9.1879    38.9594 </r>
       <r>     3.1210    11.0699    39.5694 </r>
       <r>     3.1761    12.0252    40.2321 </r>
       <r>     3.2312     8.6719    40.7101 </r>
       <r>     3.2864    11.7648    41.3584 </r>
       <r>     3.3415    13.0222    42.0761 </r>
       <r>     3.3966     8.4686    42.5428 </r>
       <r>     3.4517     9.5074    43.0667 </r>
       <r>     3.5068     4.9533    43.3397 </r>
       <r>     3.5619     7.2597    43.7398 </r>
       <r>     3.6170    13.9876    44.5107 </r>
       <r>     3.6721    12.8399    45.2183 </r>
       <r>     3.7272    10.4730    45.7954 </r>
       <r>     3.7823     6.5849    46.1583 </r>
       <r>     3.8375     9.7557    46.6960 </r>
       <r>     3.8926    13.2661    47.4271 </r>
       <r>     3.9477    12.7903    48.1319 </r>
       <r>     4.0028    10.1849    48.6932 </r>
       <r>     4.0579     8.9411    49.1860 </r>
       <r>     4.1130    13.3813    49.9234 </r>
       <r>     4.1681    11.8771    50.5780 </r>
       <r>     4.2232    10.8443    51.1756 </r>
       <r>     4.2783    10.3138    51.7440 </r>
       <r>     4.3334     6.5833    52.1068 </r>
       <r>     4.3886     6.3792    52.4584 </r>
       <r>     4.4437     9.8011    52.9985 </r>
       <r>     4.4988    14.5517    53.8005 </r>
       <r>     4.5539    13.5312    54.5462 </r>
       <r>     4.6090     9.2050    55.0535 </r>
       <r>     4.6641    12.3892    55.7362 </r>
       <r>     4.7192    13.7086    56.4917 </r>
       <r>     4.7743    12.5567    57.1837 </r>
       <r>     4.8294    12.3621    57.8650 </r>
       <r>     4.8845    10.0269    58.4176 </r>
       <r>     4.9397    11.5714    59.0553 </r>
       <r>     4.9948    12.2338    59.7295 </r>
       <r>     5.0499    10.2623    60.2950 </r>
       <r>     5.1050    12.0523    60.9592 </r>
       <r>     5.1601     9.2924    61.4713 </r>
       <r>     5.2152    11.3017    62.0942 </r>
       <r>     5.2703    14.5951    62.8985 </r>
       <r>     5.3254    14.1708    63.6795 </r>
       <r>     5.3805    12.8982    64.3903 </r>
       <r>     5.4357    12.1550    65.0602 </r>
       <r>     5.4908    15.4784    65.9132 </r>
       <r>     5.5459    11.6098    66.5530 </r>
       <r>     5.6010     7.7467    66.9799 </r>
       <r>     5.6561     7.9086    67.4158 </r>
       <r>     5.7112    11.5848    68.0542 </r>
       <r>     5.7663    17.3304    69.0093 </r>
       <r>     5.8214    15.1349    69.8434 </r>
       <r>     5.8765     9.9266    70.3904 </r>
       <r>     5.9316     6.9735    70.7748 </r>
       <r>     5.9868     7.2913    71.1766 </r>
       <r>     6.0419    10.6150    71.7616 </r>
       <r>     6.0970    14.6772    72.5704 </r>
       <r>     6.1521    14.9664    73.3952 </r>
       <r>     6.2072    12.9282    74.1077 </r>
       <r>     6.2623    11.8704    74.7619 </r>
       <r>     6.3174    12.1361    75.4307 </r>
       <r>     6.3725     6.2201    75.7735 </r>
       <r>     6.4276     8.1440    76.2223 </r>
       <r>     6.4827    12.9589    76.9365 </r>
       <r>     6.5379    12.6187    77.6319 </r>
       <r>     6.5930    11.4012    78.2602 </r>
       <r>     6.6481    12.5997    78.9546 </r>
       <r>     6.7032    12.0517    79.6188 </r>
       <r>     6.7583    10.3502    80.1892 </r>
       <r>     6.8134    12.4670    80.8763 </r>
       <r>     6.8685    10.9241    81.4783 </r>
       <r>     6.9236    13.0816    82.1992 </r>
       <r>     6.9787    14.8960    83.0201 </r>
       <r>     7.0338    10.2180    83.5833 </r>
       <r>     7.0890     9.8785    84.1277 </r>
       <r>     7.1441    12.3624    84.8090 </r>
       <r>     7.1992    14.4439    85.6050 </r>
       <r>     7.2543    14.5566    86.4072 </r>
       <r>     7.3094    13.5582    87.1544 </r>
       <r>     7.3645    13.8784    87.9192 </r>
       <r>     7.4196    10.4471    88.4950 </r>
       <r>     7.4747    11.4006    89.1232 </r>
       <r>     7.5298    12.8579    89.8318 </r>
       <r>     7.5849    11.2261    90.4505 </r>
       <r>     7.6401    14.2792    91.2375 </r>
       <r>     7.6952    10.9812    91.8426 </r>
       <r>     7.7503    11.3283    92.4669 </r>
       <r>     7.8054    12.0687    93.1320 </r>
       <r>     7.8605    13.3362    93.8670 </r>
       <r>     7.9156    12.9583    94.5811 </r>
       <r>     7.9707    13.7087    95.3366 </r>
       <r>     8.0258    13.1349    96.0605 </r>
       <r>     8.0809     9.3522    96.5759 </r>
       <r>     8.1361     9.9593    97.1248 </r>
       <r>     8.1912    13.1584    97.8499 </r>
       <r>     8.2463    13.2783    98.5817 </r>
       <r>     8.3014    11.8178    99.2330 </r>
       <r>     8.3565    11.5819    99.8712 </r>
       <r>     8.4116    15.9760   100.7517 </r>
       <r>     8.4667    19.1297   101.8059 </r>
       <r>     8.5218    17.7572   102.7845 </r>
       <r>     8.5769    14.1869   103.5664 </r>
       <r>     8.6320    14.5756   104.3696 </r>
       <r>     8.6872    15.2054   105.2076 </r>
       <r>     8.7423    10.8832   105.8074 </r>
       <r>     8.7974    10.4959   106.3858 </r>
       <r>     8.8525    13.0117   107.1029 </r>
       <r>     8.9076    13.8860   107.8682 </r>
       <r>     8.9627    12.0881   108.5343 </r>
       <r>     9.0178    10.1652   109.0945 </r>
       <r>     9.0729    12.3649   109.7760 </r>
       <r>     9.1280     8.7348   110.2574 </r>
       <r>     9.1831    11.7627   110.9056 </r>
       <r>     9.2383    11.1964   111.5226 </r>
       <r>     9.2934    17.9106   112.5097 </r>
       <r>     9.3485    20.1020   113.6175 </r>
       <r>     9.4036    13.3985   114.3559 </r>
       <r>     9.4587    16.3607   115.2576 </r>
       <r>     9.5138    19.5853   116.3369 </r>
       <r>     9.5689    16.6648   117.2553 </r>
       <r>     9.6240    11.9836   117.9157 </r>
       <r>     9.6791    11.5229   118.5508 </r>
       <r>     9.7342     9.9511   119.0992 </r>
       <r>     9.7894    10.3151   119.6676 </r>
       <r>     9.8445    10.5839   120.2509 </r>
       <r>     9.8996    12.5044   120.9400 </r>
       <r>     9.9547    15.3246   121.7846 </r>
       <r>    10.0098    17.2145   122.7333 </r>
       <r>    10.0649    19.8695   123.8283 </r>
       <r>    10.1200    17.5154   124.7936 </r>
       <r>    10.1751    12.3197   125.4725 </r>
       <r>    10.2302    13.0715   126.1929 </r>
       <r>    10.2853    12.7790   126.8971 </r>
       <r>    10.3405    14.1047   127.6744 </r>
       <r>    10.3956    12.0963   128.3411 </r>
       <r>    10.4507    15.3739   129.1883 </r>
       <r>    10.5058    15.6121   130.0487 </r>
       <r>    10.5609    13.5752   130.7968 </r>
       <r>    10.6160    13.6738   131.5504 </r>
       <r>    10.6711    15.3866   132.3984 </r>
       <r>    10.7262    10.4606   132.9748 </r>
       <r>    10.7813    11.3161   133.5985 </r>
       <r>    10.8365    14.5935   134.4027 </r>
       <r>    10.8916    17.3815   135.3606 </r>
       <r>    10.9467    11.9865   136.0212 </r>
       <r>    11.0018    14.4343   136.8167 </r>
       <r>    11.0569    15.4520   137.6682 </r>
       <r>    11.1120    16.4097   138.5726 </r>
       <r>    11.1671    13.5308   139.3183 </r>
       <r>    11.2222    11.8143   139.9694 </r>
       <r>    11.2773    14.9290   140.7921 </r>
       <r>    11.3324    13.3903   141.5300 </r>
       <r>    11.3876     8.5003   141.9985 </r>
       <r>    11.4427     5.4914   142.3011 </r>
       <r>    11.4978     8.1294   142.7491 </r>
       <r>    11.5529     7.9296   143.1861 </r>
       <r>    11.6080     4.0491   143.4093 </r>
       <r>    11.6631     3.1544   143.5831 </r>
       <r>    11.7182     3.3812   143.7695 </r>
       <r>    11.7733     1.7979   143.8686 </r>
       <r>    11.8284     0.3310   143.8868 </r>
       <r>    11.8835     0.7194   143.9264 </r>
       <r>    11.9387     1.0764   143.9858 </r>
       <r>    11.9938     0.2507   143.9996 </r>
       <r>    12.0489     0.0076   144.0000 </r>
       <r>    12.1040     0.0000   144.0000 </r>
       <r>    12.1591     0.0000   144.0000 </r>
       <r>    12.2142     0.0000   144.0000 </r>
       <r>    12.2693     0.0000   144.0000 </r>
       <r>    12.3244     0.0000   144.0000 </r>
       <r>    12.3795     0.0000   144.0000 </r>
       <r>    12.4346     0.0000   144.0000 </r>
       <r>    12.4898     0.0000   144.0000 </r>
       <r>    12.5449     0.0000   144.0000 </r>
       <r>    12.6000     0.0000   144.0000 </r>
       <r>    12.6551     0.0000   144.0000 </r>
      </set>
     </set>
    </array>
   </total>
  </dos>
 </calculation>
 <structure name="finalpos" >
  <crystal>
   <varray name="basis" >
    <v>       8.07682634       0.00000000       0.00000000 </v>
    <v>       0.00000000       8.07682634       0.00000000 </v>
    <v>       0.00000000       0.00000000       8.07682634 </v>
   </varray>
   <i name="volume">    526.89276523 </i>
   <varray name="rec_basis" >
    <v>       0.12381101       0.00000000       0.00000000 </v>
    <v>       0.00000000       0.12381101       0.00000000 </v>
    <v>       0.00000000       0.00000000       0.12381101 </v>
   </varray>
  </crystal>
  <varray name="positions" >
   <v>       0.00123811       0.00000000       0.00000000 </v>
   <v>       0.50000000       0.00000000       0.00000000 </v>
   <v>       0.00000000       0.50000000       0.00000000 </v>
   <v>       0.50000000       0.50000000       0.00000000 </v>
   <v>       0.00000000       0.00000000       0.50000000 </v>
   <v>       0.50000000       0.00000000       0.50000000 </v>
   <v>       0.00000000       0.50000000       0.50000000 </v>
   <v>       0.50000000       0.50000000       0.50000000 </v>
   <v>       0.00000000       0.25000000       0.25000000 </v>
   <v>       0.50000000       0.25000000       0.25000000 </v>
   <v>       0.00000000       0.75000000       0.25000000 </v>
   <v>       0.50000000       0.75000000       0.25000000 </v>
   <v>       0.00000000       0.25000000       0.75000000 </v>
   <v>       0.50000000       0.25000000       0.75000000 </v>
   <v>       0.00000000       0.75000000       0.75000000 </v>
   <v>       0.50000000       0.75000000       0.75000000 </v>
   <v>       0.25000000       0.00000000       0.25000000 </v>
   <v>       0.75000000       0.00000000       0.25000000 </v>
   <v>       0.25000000       0.50000000       0.25000000 </v>
   <v>       0.75000000       0.50000000       0.25000000 </v>
   <v>       0.25000000       0.00000000       0.75000000 </v>
   <v>       0.75000000       0.00000000       0.75000000 </v>
   <v>       0.25000000       0.50000000       0.75000000 </v>
   <v>       0.75000000       0.50000000       0.75000000 </v>
   <v>       0.25000000       0.25000000       0.00000000 </v>
   <v>       0.75000000       0.25000000       0.00000000 </v>
   <v>       0.25000000       0.75000000       0.00000000 </v>
   <v>       0.75000000       0.75000000       0.00000000 </v>
   <v>       0.25000000       0.25000000       0.50000000 </v>
   <v>       0.75000000       0.25000000       0.50000000 </v>
   <v>       0.25000000       0.75000000       0.50000000 </v>
   <v>       0.75000000       0.75000000       0.50000000 </v>
  </varray>
 </structure>
</modeling>
