<?xml version="1.0" encoding="ISO-8859-1"?>
<modeling>
 <generator>
  <i name="program" type="string">vasp </i>
  <i name="version" type="string">6.3.0  </i>
  <i name="subversion" type="string">20Jan22 (build Feb 10 2022 15:15:41) complex                          parallel </i>
  <i name="platform" type="string">LinuxIFC </i>
  <i name="date" type="string">2023 10 05 </i>
  <i name="time" type="string">12:12:20 </i>
 </generator>
 <incar>
  <i name="EDIFF">      0.00010000</i>
  <i name="ENCUT">    360.00000000</i>
  <i type="int" name="ISMEAR">     0</i>
  <i name="SIGMA">      0.05000000</i>
 </incar>
 <primitive_cell>
  <structure name="primitive_cell" >
   <crystal>
    <varray name="basis" >
     <v>      13.52329754       0.00000000       0.00000000 </v>
     <v>       0.00000000      13.52329754       0.00000000 </v>
     <v>       0.00000000       0.00000000      13.52329754 </v>
    </varray>
    <i name="volume">   2473.13492757 </i>
    <varray name="rec_basis" >
     <v>       0.07394646       0.00000000       0.00000000 </v>
     <v>       0.00000000       0.07394646       0.00000000 </v>
     <v>       0.00000000       0.00000000       0.07394646 </v>
    </varray>
   </crystal>
   <varray name="positions" >
    <v>       0.00000000       0.00000000       0.00000000 </v>
    <v>       0.50000000       0.00000000       0.00000000 </v>
    <v>       0.00000000       0.50000000       0.00000000 </v>
    <v>       0.50000000       0.50000000       0.00000000 </v>
    <v>       0.00000000       0.00000000       0.50000000 </v>
    <v>       0.50000000       0.00000000       0.50000000 </v>
    <v>       0.00000000       0.50000000       0.50000000 </v>
    <v>       0.50000000       0.50000000       0.50000000 </v>
    <v>       0.00000000       0.25000000       0.25000000 </v>
    <v>       0.50000000       0.25000000       0.25000000 </v>
    <v>       0.00000000       0.75000000       0.25000000 </v>
    <v>       0.50000000       0.75000000       0.25000000 </v>
    <v>       0.00000000       0.25000000       0.75000000 </v>
    <v>       0.50000000       0.25000000       0.75000000 </v>
    <v>       0.00000000       0.75000000       0.75000000 </v>
    <v>       0.50000000       0.75000000       0.75000000 </v>
    <v>       0.25000000       0.00000000       0.25000000 </v>
    <v>       0.75000000       0.00000000       0.25000000 </v>
    <v>       0.25000000       0.50000000       0.25000000 </v>
    <v>       0.75000000       0.50000000       0.25000000 </v>
    <v>       0.25000000       0.00000000       0.75000000 </v>
    <v>       0.75000000       0.00000000       0.75000000 </v>
    <v>       0.25000000       0.50000000       0.75000000 </v>
    <v>       0.75000000       0.50000000       0.75000000 </v>
    <v>       0.25000000       0.25000000       0.00000000 </v>
    <v>       0.75000000       0.25000000       0.00000000 </v>
    <v>       0.25000000       0.75000000       0.00000000 </v>
    <v>       0.75000000       0.75000000       0.00000000 </v>
    <v>       0.25000000       0.25000000       0.50000000 </v>
    <v>       0.75000000       0.25000000       0.50000000 </v>
    <v>       0.25000000       0.75000000       0.50000000 </v>
    <v>       0.75000000       0.75000000       0.50000000 </v>
    <v>       0.12573946       0.12500000       0.12500000 </v>
    <v>       0.62500000       0.12500000       0.12500000 </v>
    <v>       0.12500000       0.62500000       0.12500000 </v>
    <v>       0.62500000       0.62500000       0.12500000 </v>
    <v>       0.12500000       0.12500000       0.62500000 </v>
    <v>       0.62500000       0.12500000       0.62500000 </v>
    <v>       0.12500000       0.62500000       0.62500000 </v>
    <v>       0.62500000       0.62500000       0.62500000 </v>
    <v>       0.12500000       0.37500000       0.37500000 </v>
    <v>       0.62500000       0.37500000       0.37500000 </v>
    <v>       0.12500000       0.87500000       0.37500000 </v>
    <v>       0.62500000       0.87500000       0.37500000 </v>
    <v>       0.12500000       0.37500000       0.87500000 </v>
    <v>       0.62500000       0.37500000       0.87500000 </v>
    <v>       0.12500000       0.87500000       0.87500000 </v>
    <v>       0.62500000       0.87500000       0.87500000 </v>
    <v>       0.37500000       0.12500000       0.37500000 </v>
    <v>       0.87500000       0.12500000       0.37500000 </v>
    <v>       0.37500000       0.62500000       0.37500000 </v>
    <v>       0.87500000       0.62500000       0.37500000 </v>
    <v>       0.37500000       0.12500000       0.87500000 </v>
    <v>       0.87500000       0.12500000       0.87500000 </v>
    <v>       0.37500000       0.62500000       0.87500000 </v>
    <v>       0.87500000       0.62500000       0.87500000 </v>
    <v>       0.37500000       0.37500000       0.12500000 </v>
    <v>       0.87500000       0.37500000       0.12500000 </v>
    <v>       0.37500000       0.87500000       0.12500000 </v>
    <v>       0.87500000       0.87500000       0.12500000 </v>
    <v>       0.37500000       0.37500000       0.62500000 </v>
    <v>       0.87500000       0.37500000       0.62500000 </v>
    <v>       0.37500000       0.87500000       0.62500000 </v>
    <v>       0.87500000       0.87500000       0.62500000 </v>
   </varray>
  </structure>
  <varray name="primitive_index" >
   <v type="int" >        1 </v>
   <v type="int" >        2 </v>
   <v type="int" >        3 </v>
   <v type="int" >        4 </v>
   <v type="int" >        5 </v>
   <v type="int" >        6 </v>
   <v type="int" >        7 </v>
   <v type="int" >        8 </v>
   <v type="int" >        9 </v>
   <v type="int" >       10 </v>
   <v type="int" >       11 </v>
   <v type="int" >       12 </v>
   <v type="int" >       13 </v>
   <v type="int" >       14 </v>
   <v type="int" >       15 </v>
   <v type="int" >       16 </v>
   <v type="int" >       17 </v>
   <v type="int" >       18 </v>
   <v type="int" >       19 </v>
   <v type="int" >       20 </v>
   <v type="int" >       21 </v>
   <v type="int" >       22 </v>
   <v type="int" >       23 </v>
   <v type="int" >       24 </v>
   <v type="int" >       25 </v>
   <v type="int" >       26 </v>
   <v type="int" >       27 </v>
   <v type="int" >       28 </v>
   <v type="int" >       29 </v>
   <v type="int" >       30 </v>
   <v type="int" >       31 </v>
   <v type="int" >       32 </v>
   <v type="int" >       33 </v>
   <v type="int" >       34 </v>
   <v type="int" >       35 </v>
   <v type="int" >       36 </v>
   <v type="int" >       37 </v>
   <v type="int" >       38 </v>
   <v type="int" >       39 </v>
   <v type="int" >       40 </v>
   <v type="int" >       41 </v>
   <v type="int" >       42 </v>
   <v type="int" >       43 </v>
   <v type="int" >       44 </v>
   <v type="int" >       45 </v>
   <v type="int" >       46 </v>
   <v type="int" >       47 </v>
   <v type="int" >       48 </v>
   <v type="int" >       49 </v>
   <v type="int" >       50 </v>
   <v type="int" >       51 </v>
   <v type="int" >       52 </v>
   <v type="int" >       53 </v>
   <v type="int" >       54 </v>
   <v type="int" >       55 </v>
   <v type="int" >       56 </v>
   <v type="int" >       57 </v>
   <v type="int" >       58 </v>
   <v type="int" >       59 </v>
   <v type="int" >       60 </v>
   <v type="int" >       61 </v>
   <v type="int" >       62 </v>
   <v type="int" >       63 </v>
   <v type="int" >       64 </v>
  </varray>
 </primitive_cell>
 <kpoints>
  <generation param="Gamma">
   <v type="int" name="divisions">       3        3        3 </v>
   <v name="usershift">      0.00000000       0.00000000       0.00000000 </v>
   <v name="genvec1">      0.33333333       0.00000000       0.00000000 </v>
   <v name="genvec2">      0.00000000       0.33333333       0.00000000 </v>
   <v name="genvec3">      0.00000000       0.00000000       0.33333333 </v>
   <v name="shift">      0.00000000       0.00000000       0.00000000 </v>
  </generation>
  <varray name="kpointlist" >
   <v>       0.00000000       0.00000000       0.00000000 </v>
   <v>       0.33333333       0.00000000       0.00000000 </v>
   <v>       0.00000000       0.33333333       0.00000000 </v>
   <v>       0.33333333       0.33333333       0.00000000 </v>
   <v>       0.00000000       0.33333333       0.33333333 </v>
   <v>       0.00000000      -0.33333333       0.33333333 </v>
   <v>       0.33333333       0.33333333       0.33333333 </v>
   <v>      -0.33333333      -0.33333333       0.33333333 </v>
  </varray>
  <varray name="weights" >
   <v>       0.03703704 </v>
   <v>       0.07407407 </v>
   <v>       0.14814815 </v>
   <v>       0.29629630 </v>
   <v>       0.07407407 </v>
   <v>       0.07407407 </v>
   <v>       0.14814815 </v>
   <v>       0.14814815 </v>
  </varray>
 </kpoints>
 <parameters>
  <separator name="general" >
   <i type="string" name="SYSTEM">unknown system</i>
   <i type="logical" name="LCOMPAT"> F  </i>
  </separator>
  <separator name="electronic" >
   <i type="string" name="PREC">normal</i>
   <i name="ENMAX">    360.00000000</i>
   <i name="ENAUG">    456.10600000</i>
   <i name="EDIFF">      0.00010000</i>
   <i type="int" name="IALGO">    38</i>
   <i type="int" name="IWAVPR">    10</i>
   <i type="int" name="NBANDS">   384</i>
   <i type="int" name="NBANDSLOW">    -1</i>
   <i type="int" name="NBANDSHIGH">    -1</i>
   <i name="NELECT">    576.00000000</i>
   <i type="int" name="TURBO">     0</i>
   <i type="int" name="IRESTART">     0</i>
   <i type="int" name="NREBOOT">     0</i>
   <i type="int" name="NMIN">     0</i>
   <i name="EREF">      0.00000000</i>
   <separator name="electronic smearing" >
    <i type="int" name="ISMEAR">     0</i>
    <i name="SIGMA">      0.05000000</i>
    <i name="KSPACING">      0.50000000</i>
    <i type="logical" name="KGAMMA"> T  </i>
    <i type="logical" name="KBLOWUP"> T  </i>
   </separator>
   <separator name="electronic projectors" >
    <i type="logical" name="LREAL"> F  </i>
    <v name="ROPT">      0.00000000      0.00000000</v>
    <i type="int" name="LMAXPAW">  -100</i>
    <i type="int" name="LMAXMIX">     2</i>
    <i type="logical" name="NLSPLINE"> F  </i>
   </separator>
   <separator name="electronic startup" >
    <i type="int" name="ISTART">     0</i>
    <i type="int" name="ICHARG">     2</i>
    <i type="int" name="INIWAV">     1</i>
   </separator>
   <separator name="electronic spin" >
    <i type="int" name="ISPIN">     1</i>
    <i type="logical" name="LNONCOLLINEAR"> F  </i>
    <v name="MAGMOM">      1.00000000      1.00000000      1.00000000      1.00000000      1.00000000      1.00000000      1.00000000      1.00000000      1.00000000      1.00000000      1.00000000      1.00000000      1.00000000      1.00000000      1.00000000      1.00000000      1.00000000      1.00000000      1.00000000      1.00000000
      1.00000000      1.00000000      1.00000000      1.00000000      1.00000000      1.00000000      1.00000000      1.00000000      1.00000000      1.00000000      1.00000000      1.00000000      1.00000000      1.00000000      1.00000000      1.00000000      1.00000000      1.00000000      1.00000000      1.00000000
      1.00000000      1.00000000      1.00000000      1.00000000      1.00000000      1.00000000      1.00000000      1.00000000      1.00000000      1.00000000      1.00000000      1.00000000      1.00000000      1.00000000      1.00000000      1.00000000      1.00000000      1.00000000      1.00000000      1.00000000
      1.00000000      1.00000000      1.00000000      1.00000000</v>
    <i name="NUPDOWN">     -1.00000000</i>
    <i type="logical" name="LSORBIT"> F  </i>
    <v name="SAXIS">      0.00000000      0.00000000      1.00000000</v>
    <i type="logical" name="LSPIRAL"> F  </i>
    <v name="QSPIRAL">      0.00000000      0.00000000      0.00000000</v>
    <i type="logical" name="LZEROZ"> F  </i>
   </separator>
   <separator name="electronic exchange-correlation" >
    <i type="logical" name="LASPH"> F  </i>
    <i type="logical" name="LMETAGGA"> F  </i>
   </separator>
   <separator name="electronic convergence" >
    <i type="int" name="NELM">    60</i>
    <i type="int" name="NELMDL">    -5</i>
    <i type="int" name="NELMIN">     2</i>
    <i name="ENINI">    360.00000000</i>
    <separator name="electronic convergence detail" >
     <i type="logical" name="LDIAG"> T  </i>
     <i type="logical" name="LSUBROT"> F  </i>
     <i name="WEIMIN">      0.00000000</i>
     <i name="EBREAK">      0.00000007</i>
     <i name="DEPER">      0.30000000</i>
     <i type="int" name="NRMM">     4</i>
     <i name="TIME">      0.40000000</i>
    </separator>
   </separator>
   <separator name="electronic mixer" >
    <i name="AMIX">      0.40000000</i>
    <i name="BMIX">      1.00000000</i>
    <i name="AMIN">      0.10000000</i>
    <i name="AMIX_MAG">      1.60000000</i>
    <i name="BMIX_MAG">      1.00000000</i>
    <separator name="electronic mixer details" >
     <i type="int" name="IMIX">     4</i>
     <i type="logical" name="MIXFIRST"> F  </i>
     <i type="int" name="MAXMIX">   -45</i>
     <i name="WC">    100.00000000</i>
     <i type="int" name="INIMIX">     1</i>
     <i type="int" name="MIXPRE">     1</i>
     <i type="int" name="MREMOVE">     5</i>
    </separator>
   </separator>
   <separator name="electronic dipolcorrection" >
    <i type="logical" name="LDIPOL"> F  </i>
    <i type="logical" name="LMONO"> F  </i>
    <i type="int" name="IDIPOL">     0</i>
    <i name="EPSILON">      1.00000000</i>
    <v name="DIPOL">   -100.00000000   -100.00000000   -100.00000000</v>
    <i name="EFIELD">      0.00000000</i>
   </separator>
  </separator>
  <separator name="grids" >
   <i type="int" name="NGX">    64</i>
   <i type="int" name="NGY">    64</i>
   <i type="int" name="NGZ">    64</i>
   <i type="int" name="NGXF">   128</i>
   <i type="int" name="NGYF">   128</i>
   <i type="int" name="NGZF">   128</i>
   <i type="logical" name="ADDGRID"> F  </i>
  </separator>
  <separator name="ionic" >
   <i type="int" name="NSW">     0</i>
   <i type="int" name="IBRION">    -1</i>
   <i type="int" name="MDALGO">     0</i>
   <i type="int" name="ISIF">     2</i>
   <i name="PSTRESS">      0.00000000</i>
   <i name="EDIFFG">      0.00100000</i>
   <i type="int" name="NFREE">     0</i>
   <i name="POTIM">      0.50000000</i>
   <i name="SMASS">     -3.00000000</i>
   <i name="SCALEE">      1.00000000</i>
  </separator>
  <separator name="ionic md" >
   <i name="TEBEG">      0.00010000</i>
   <i name="TEEND">      0.00010000</i>
   <i type="int" name="NBLOCK">     1</i>
   <i type="int" name="KBLOCK">     1</i>
   <i type="int" name="NPACO">   256</i>
   <i name="APACO">     10.00000000</i>
  </separator>
  <separator name="symmetry" >
   <i type="int" name="ISYM">     2</i>
   <i name="SYMPREC">      0.00001000</i>
  </separator>
  <separator name="dos" >
   <i type="int" name="LORBIT">     0</i>
   <v name="RWIGS">     -1.00000000     -1.00000000</v>
   <i type="int" name="NEDOS">   301</i>
   <i name="EMIN">     10.00000000</i>
   <i name="EMAX">    -10.00000000</i>
   <i name="EFERMI">      0.00000000</i>
  </separator>
  <separator name="writing" >
   <i type="int" name="NWRITE">     2</i>
   <i type="logical" name="LWAVE"> T  </i>
   <i type="logical" name="LDOWNSAMPLE"> F  </i>
   <i type="logical" name="LCHARG"> T  </i>
   <i type="logical" name="LPARD"> F  </i>
   <i type="logical" name="LVTOT"> F  </i>
   <i type="logical" name="LVHAR"> F  </i>
   <i type="logical" name="LELF"> F  </i>
   <i type="logical" name="LOPTICS"> F  </i>
   <v name="STM">      0.00000000      0.00000000      0.00000000      0.00000000      0.00000000      0.00000000      0.00000000</v>
  </separator>
  <separator name="performance" >
   <i type="int" name="NPAR">    48</i>
   <i type="int" name="NSIM">     4</i>
   <i type="int" name="NBLK">    -1</i>
   <i type="logical" name="LPLANE"> T  </i>
   <i type="logical" name="LSCALAPACK"> T  </i>
   <i type="logical" name="LSCAAWARE"> F  </i>
   <i type="logical" name="LSCALU"> F  </i>
   <i type="logical" name="LASYNC"> F  </i>
   <i type="logical" name="LORBITALREAL"> F  </i>
  </separator>
  <separator name="miscellaneous" >
   <i type="int" name="IDIOT">     3</i>
   <i type="int" name="PHON_NSTRUCT">    -1</i>
   <i type="logical" name="LMUSIC"> F  </i>
   <v name="POMASS">    112.41100000    127.60000000</v>
   <v name="DARWINR">      0.00000000      0.00000000</v>
   <v name="DARWINV">      1.00000000      1.00000000</v>
   <i type="logical" name="LCORR"> T  </i>
  </separator>
  <i type="logical" name="GGA_COMPAT"> T  </i>
  <i type="logical" name="LBERRY"> F  </i>
  <i type="int" name="ICORELEVEL">     0</i>
  <i type="logical" name="LDAU"> F  </i>
  <i type="int" name="I_CONSTRAINED_M">     0</i>
  <separator name="electronic exchange-correlation" >
   <i type="string" name="GGA">--</i>
   <i type="int" name="VOSKOWN">     0</i>
   <i type="logical" name="LHFCALC"> F  </i>
   <i type="string" name="PRECFOCK"></i>
   <i type="logical" name="LSYMGRAD"> F  </i>
   <i type="logical" name="LHFONE"> F  </i>
   <i type="logical" name="LRHFCALC"> F  </i>
   <i type="logical" name="LTHOMAS"> F  </i>
   <i type="logical" name="LMODELHF"> F  </i>
   <i type="logical" name="LFOCKACE"> F  </i>
   <i name="ENCUT4O">     -1.00000000</i>
   <i type="int" name="EXXOEP">     0</i>
   <i type="int" name="FOURORBIT">     0</i>
   <i name="AEXX">      0.00000000</i>
   <i name="HFALPHA">      0.00000000</i>
   <i name="MCALPHA">      0.00000000</i>
   <i name="ALDAX">      1.00000000</i>
   <i name="AGGAX">      1.00000000</i>
   <i name="ALDAC">      1.00000000</i>
   <i name="AGGAC">      1.00000000</i>
   <i type="int" name="NKREDX">     1</i>
   <i type="int" name="NKREDY">     1</i>
   <i type="int" name="NKREDZ">     1</i>
   <i type="logical" name="SHIFTRED"> F  </i>
   <i type="logical" name="ODDONLY"> F  </i>
   <i type="logical" name="EVENONLY"> F  </i>
   <i type="int" name="LMAXFOCK">     0</i>
   <i type="int" name="NMAXFOCKAE">     0</i>
   <i type="logical" name="LFOCKAEDFT"> F  </i>
   <i name="HFSCREEN">      0.00000000</i>
   <i name="HFSCREENC">      0.00000000</i>
   <i type="int" name="NBANDSGWLOW">     0</i>
  </separator>
  <separator name="vdW DFT" >
   <i type="logical" name="LUSE_VDW"> F  </i>
   <i name="Zab_VDW">     -0.84910000</i>
   <i name="PARAM1">      0.12340000</i>
   <i name="PARAM2">      1.00000000</i>
   <i name="PARAM3">      0.00000000</i>
  </separator>
  <separator name="model GW" >
   <i type="int" name="MODEL_GW">     0</i>
   <i name="MODEL_EPS0">     23.18563995</i>
   <i name="MODEL_ALPHA">      1.00000000</i>
  </separator>
  <separator name="linear response parameters" >
   <i type="logical" name="LEPSILON"> F  </i>
   <i type="logical" name="LRPA"> F  </i>
   <i type="logical" name="LNABLA"> F  </i>
   <i type="logical" name="LVEL"> F  </i>
   <i name="CSHIFT">      0.10000000</i>
   <i name="OMEGAMAX">     -1.00000000</i>
   <i name="DEG_THRESHOLD">      0.00200000</i>
   <i name="RTIME">     -0.10000000</i>
   <i name="WPLASMAI">      0.00000000</i>
   <v name="DFIELD">      0.00000000      0.00000000      0.00000000</v>
   <v name="WPLASMA">      0.00000000      0.00000000      0.00000000      0.00000000      0.00000000      0.00000000      0.00000000      0.00000000      0.00000000</v>
  </separator>
  <separator name="orbital magnetization" >
   <i type="logical" name="NUCIND"> F  </i>
   <v name="MAGPOS">      0.00000000      0.00000000      0.00000000</v>
   <i type="logical" name="LNICSALL"> T  </i>
   <i type="logical" name="ORBITALMAG"> F  </i>
   <i type="logical" name="LMAGBLOCH"> F  </i>
   <i type="logical" name="LCHIMAG"> F  </i>
   <i type="logical" name="LGAUGE"> T  </i>
   <i type="int" name="MAGATOM">     0</i>
   <v name="MAGDIPOL">      0.00000000      0.00000000      0.00000000</v>
   <v name="AVECCONST">      0.00000000      0.00000000      0.00000000</v>
  </separator>
  <separator name="response functions" >
   <i type="logical" name="LFINITE_TEMPERATURE"> F  </i>
   <i type="logical" name="LADDER"> F  </i>
   <i type="logical" name="LRPAFORCE"> F  </i>
   <i type="logical" name="LFXC"> F  </i>
   <i type="logical" name="LHARTREE"> T  </i>
   <i type="int" name="IBSE">     0</i>
   <v type="int" name="KPOINT">    -1     0     0     0</v>
   <i type="logical" name="LTCTC"> F  </i>
   <i type="logical" name="LTCTE"> F  </i>
   <i type="logical" name="LTETE"> F  </i>
   <i type="logical" name="LTRIPLET"> F  </i>
   <i type="logical" name="LFXCEPS"> F  </i>
   <i type="logical" name="LFXHEG"> F  </i>
   <i type="int" name="NATURALO">     2</i>
   <i type="logical" name="LHOLEGF"> F  </i>
   <i type="logical" name="L2ORDER"> F  </i>
   <i type="logical" name="LDMP1"> F  </i>
   <i type="logical" name="LMP2LT"> F  </i>
   <i type="logical" name="LSMP2LT"> F  </i>
   <i type="logical" name="LGWLF"> F  </i>
   <i name="ENCUTGW">     -2.00000000</i>
   <i name="ENCUTGWSOFT">     -2.00000000</i>
   <i name="ENCUTLF">     -1.00000000</i>
   <i type="logical" name="LESF_SPLINES"> F  </i>
   <i type="int" name="LMAXMP2">    -1</i>
   <i name="SCISSOR">      0.00000000</i>
   <i type="int" name="NOMEGA">     0</i>
   <i type="int" name="NOMEGAR">     0</i>
   <i type="int" name="NBANDSGW">    -1</i>
   <i type="int" name="NBANDSO">    -1</i>
   <i type="int" name="NBANDSV">    -1</i>
   <i type="int" name="NELMGW">     1</i>
   <i type="int" name="NELMHF">     1</i>
   <i type="int" name="DIM">     3</i>
   <i type="int" name="IESPILON">     4</i>
   <i type="int" name="ANTIRES">     0</i>
   <i name="OMEGAMAX">    -30.00000000</i>
   <i name="OMEGAMIN">    -30.00000000</i>
   <i name="OMEGATL">   -200.00000000</i>
   <i type="int" name="OMEGAGRID">     0</i>
   <i name="CSHIFT">     -0.10000000</i>
   <i type="logical" name="LSELFENERGY"> F  </i>
   <i type="logical" name="LSPECTRAL"> F  </i>
   <i type="logical" name="LSPECTRALGW"> F  </i>
   <i type="logical" name="LSINGLES"> F  </i>
   <i type="logical" name="LFERMIGW"> F  </i>
   <i type="logical" name="ODDONLYGW"> F  </i>
   <i type="logical" name="EVENONLYGW"> F  </i>
   <i type="int" name="NKREDLFX">     1</i>
   <i type="int" name="NKREDLFY">     1</i>
   <i type="int" name="NKREDLFZ">     1</i>
   <i type="int" name="MAXMEM">  2800</i>
   <i type="int" name="TELESCOPE">     0</i>
   <i type="int" name="NTAUPAR">    -1</i>
   <i type="int" name="NOMEGAPAR">    -1</i>
   <i name="DAMP_NEWTON">      0.80000001</i>
   <i name="LAMBDA">      1.00000000</i>
  </separator>
  <separator name="External order field" >
   <i name="OFIELD_KAPPA">      0.00000000</i>
   <v name="OFIELD_K">      0.00000000      0.00000000      0.00000000</v>
   <i name="OFIELD_Q6_NEAR">      0.00000000</i>
   <i name="OFIELD_Q6_FAR">      0.00000000</i>
   <i name="OFIELD_A">      0.00000000</i>
  </separator>
  <separator name="optional k-points parameters" >
   <i type="int" name="KPOINTS_OPT_MODE">     1</i>
   <i type="logical" name="LKPOINTS_OPT"> F  </i>
  </separator>
 </parameters>
 <atominfo>
  <atoms>      64 </atoms>
  <types>       2 </types>
  <array name="atoms" >
   <dimension dim="1">ion</dimension>
   <field type="string">element</field>
   <field type="int">atomtype</field>
   <set>
    <rc><c>Cd</c><c>   1</c></rc>
    <rc><c>Cd</c><c>   1</c></rc>
    <rc><c>Cd</c><c>   1</c></rc>
    <rc><c>Cd</c><c>   1</c></rc>
    <rc><c>Cd</c><c>   1</c></rc>
    <rc><c>Cd</c><c>   1</c></rc>
    <rc><c>Cd</c><c>   1</c></rc>
    <rc><c>Cd</c><c>   1</c></rc>
    <rc><c>Cd</c><c>   1</c></rc>
    <rc><c>Cd</c><c>   1</c></rc>
    <rc><c>Cd</c><c>   1</c></rc>
    <rc><c>Cd</c><c>   1</c></rc>
    <rc><c>Cd</c><c>   1</c></rc>
    <rc><c>Cd</c><c>   1</c></rc>
    <rc><c>Cd</c><c>   1</c></rc>
    <rc><c>Cd</c><c>   1</c></rc>
    <rc><c>Cd</c><c>   1</c></rc>
    <rc><c>Cd</c><c>   1</c></rc>
    <rc><c>Cd</c><c>   1</c></rc>
    <rc><c>Cd</c><c>   1</c></rc>
    <rc><c>Cd</c><c>   1</c></rc>
    <rc><c>Cd</c><c>   1</c></rc>
    <rc><c>Cd</c><c>   1</c></rc>
    <rc><c>Cd</c><c>   1</c></rc>
    <rc><c>Cd</c><c>   1</c></rc>
    <rc><c>Cd</c><c>   1</c></rc>
    <rc><c>Cd</c><c>   1</c></rc>
    <rc><c>Cd</c><c>   1</c></rc>
    <rc><c>Cd</c><c>   1</c></rc>
    <rc><c>Cd</c><c>   1</c></rc>
    <rc><c>Cd</c><c>   1</c></rc>
    <rc><c>Cd</c><c>   1</c></rc>
    <rc><c>Te</c><c>   2</c></rc>
    <rc><c>Te</c><c>   2</c></rc>
    <rc><c>Te</c><c>   2</c></rc>
    <rc><c>Te</c><c>   2</c></rc>
    <rc><c>Te</c><c>   2</c></rc>
    <rc><c>Te</c><c>   2</c></rc>
    <rc><c>Te</c><c>   2</c></rc>
    <rc><c>Te</c><c>   2</c></rc>
    <rc><c>Te</c><c>   2</c></rc>
    <rc><c>Te</c><c>   2</c></rc>
    <rc><c>Te</c><c>   2</c></rc>
    <rc><c>Te</c><c>   2</c></rc>
    <rc><c>Te</c><c>   2</c></rc>
    <rc><c>Te</c><c>   2</c></rc>
    <rc><c>Te</c><c>   2</c></rc>
    <rc><c>Te</c><c>   2</c></rc>
    <rc><c>Te</c><c>   2</c></rc>
    <rc><c>Te</c><c>   2</c></rc>
    <rc><c>Te</c><c>   2</c></rc>
    <rc><c>Te</c><c>   2</c></rc>
    <rc><c>Te</c><c>   2</c></rc>
    <rc><c>Te</c><c>   2</c></rc>
    <rc><c>Te</c><c>   2</c></rc>
    <rc><c>Te</c><c>   2</c></rc>
    <rc><c>Te</c><c>   2</c></rc>
    <rc><c>Te</c><c>   2</c></rc>
    <rc><c>Te</c><c>   2</c></rc>
    <rc><c>Te</c><c>   2</c></rc>
    <rc><c>Te</c><c>   2</c></rc>
    <rc><c>Te</c><c>   2</c></rc>
    <rc><c>Te</c><c>   2</c></rc>
    <rc><c>Te</c><c>   2</c></rc>
   </set>
  </array>
  <array name="atomtypes" >
   <dimension dim="1">type</dimension>
   <field type="int">atomspertype</field>
   <field type="string">element</field>
   <field>mass</field>
   <field>valence</field>
   <field type="string">pseudopotential</field>
   <set>
    <rc><c>  32</c><c>Cd</c><c>    112.41100000</c><c>     12.00000000</c><c>  PAW_PBE Cd 06Sep2000                  </c></rc>
    <rc><c>  32</c><c>Te</c><c>    127.60000000</c><c>      6.00000000</c><c>  PAW_PBE Te 08Apr2002                  </c></rc>
   </set>
  </array>
 </atominfo>
 <structure name="initialpos" >
  <crystal>
   <varray name="basis" >
    <v>      13.52329754       0.00000000       0.00000000 </v>
    <v>       0.00000000      13.52329754       0.00000000 </v>
    <v>       0.00000000       0.00000000      13.52329754 </v>
   </varray>
   <i name="volume">   2473.13492757 </i>
   <varray name="rec_basis" >
    <v>       0.07394646       0.00000000       0.00000000 </v>
    <v>       0.00000000       0.07394646       0.00000000 </v>
    <v>       0.00000000       0.00000000       0.07394646 </v>
   </varray>
  </crystal>
  <varray name="positions" >
   <v>       0.00000000       0.00000000       0.00000000 </v>
   <v>       0.50000000       0.00000000       0.00000000 </v>
   <v>       0.00000000       0.50000000       0.00000000 </v>
   <v>       0.50000000       0.50000000       0.00000000 </v>
   <v>       0.00000000       0.00000000       0.50000000 </v>
   <v>       0.50000000       0.00000000       0.50000000 </v>
   <v>       0.00000000       0.50000000       0.50000000 </v>
   <v>       0.50000000       0.50000000       0.50000000 </v>
   <v>       0.00000000       0.25000000       0.25000000 </v>
   <v>       0.50000000       0.25000000       0.25000000 </v>
   <v>       0.00000000       0.75000000       0.25000000 </v>
   <v>       0.50000000       0.75000000       0.25000000 </v>
   <v>       0.00000000       0.25000000       0.75000000 </v>
   <v>       0.50000000       0.25000000       0.75000000 </v>
   <v>       0.00000000       0.75000000       0.75000000 </v>
   <v>       0.50000000       0.75000000       0.75000000 </v>
   <v>       0.25000000       0.00000000       0.25000000 </v>
   <v>       0.75000000       0.00000000       0.25000000 </v>
   <v>       0.25000000       0.50000000       0.25000000 </v>
   <v>       0.75000000       0.50000000       0.25000000 </v>
   <v>       0.25000000       0.00000000       0.75000000 </v>
   <v>       0.75000000       0.00000000       0.75000000 </v>
   <v>       0.25000000       0.50000000       0.75000000 </v>
   <v>       0.75000000       0.50000000       0.75000000 </v>
   <v>       0.25000000       0.25000000       0.00000000 </v>
   <v>       0.75000000       0.25000000       0.00000000 </v>
   <v>       0.25000000       0.75000000       0.00000000 </v>
   <v>       0.75000000       0.75000000       0.00000000 </v>
   <v>       0.25000000       0.25000000       0.50000000 </v>
   <v>       0.75000000       0.25000000       0.50000000 </v>
   <v>       0.25000000       0.75000000       0.50000000 </v>
   <v>       0.75000000       0.75000000       0.50000000 </v>
   <v>       0.12573946       0.12500000       0.12500000 </v>
   <v>       0.62500000       0.12500000       0.12500000 </v>
   <v>       0.12500000       0.62500000       0.12500000 </v>
   <v>       0.62500000       0.62500000       0.12500000 </v>
   <v>       0.12500000       0.12500000       0.62500000 </v>
   <v>       0.62500000       0.12500000       0.62500000 </v>
   <v>       0.12500000       0.62500000       0.62500000 </v>
   <v>       0.62500000       0.62500000       0.62500000 </v>
   <v>       0.12500000       0.37500000       0.37500000 </v>
   <v>       0.62500000       0.37500000       0.37500000 </v>
   <v>       0.12500000       0.87500000       0.37500000 </v>
   <v>       0.62500000       0.87500000       0.37500000 </v>
   <v>       0.12500000       0.37500000       0.87500000 </v>
   <v>       0.62500000       0.37500000       0.87500000 </v>
   <v>       0.12500000       0.87500000       0.87500000 </v>
   <v>       0.62500000       0.87500000       0.87500000 </v>
   <v>       0.37500000       0.12500000       0.37500000 </v>
   <v>       0.87500000       0.12500000       0.37500000 </v>
   <v>       0.37500000       0.62500000       0.37500000 </v>
   <v>       0.87500000       0.62500000       0.37500000 </v>
   <v>       0.37500000       0.12500000       0.87500000 </v>
   <v>       0.87500000       0.12500000       0.87500000 </v>
   <v>       0.37500000       0.62500000       0.87500000 </v>
   <v>       0.87500000       0.62500000       0.87500000 </v>
   <v>       0.37500000       0.37500000       0.12500000 </v>
   <v>       0.87500000       0.37500000       0.12500000 </v>
   <v>       0.37500000       0.87500000       0.12500000 </v>
   <v>       0.87500000       0.87500000       0.12500000 </v>
   <v>       0.37500000       0.37500000       0.62500000 </v>
   <v>       0.87500000       0.37500000       0.62500000 </v>
   <v>       0.37500000       0.87500000       0.62500000 </v>
   <v>       0.87500000       0.87500000       0.62500000 </v>
  </varray>
 </structure>
 <calculation>
  <scstep>
   <time name="dav">   77.56   77.93</time>
   <time name="total">   77.60   77.98</time>
   <energy>
    <i name="alphaZ">   1414.89185941 </i>
    <i name="ewald"> -32055.27565288 </i>
    <i name="hartreedc"> -17099.14512473 </i>
    <i name="XCdc">   -738.33920863 </i>
    <i name="pawpsdc">  44941.76741987 </i>
    <i name="pawaedc"> -42629.27134123 </i>
    <i name="eentropy">     -0.02854058 </i>
    <i name="bandstr">    633.35969293 </i>
    <i name="atom">  48525.04422734 </i>
    <i name="e_fr_energy">   2993.00333151 </i>
    <i name="e_wo_entrp">   2993.03187209 </i>
    <i name="e_0_energy">   2993.01760180 </i>
   </energy>
  </scstep>
  <scstep>
   <time name="dav">   84.82   85.18</time>
   <time name="total">   84.82   85.18</time>
   <energy>
    <i name="e_fr_energy">     11.36605759 </i>
    <i name="e_wo_entrp">     11.36605759 </i>
    <i name="e_0_energy">     11.36605759 </i>
   </energy>
  </scstep>
  <scstep>
   <time name="dav">   88.74   89.12</time>
   <time name="total">   88.74   89.12</time>
   <energy>
    <i name="e_fr_energy">   -158.06536994 </i>
    <i name="e_wo_entrp">   -158.06536994 </i>
    <i name="e_0_energy">   -158.06536994 </i>
   </energy>
  </scstep>
  <scstep>
   <time name="dav">   88.37   88.75</time>
   <time name="total">   88.37   88.75</time>
   <energy>
    <i name="e_fr_energy">   -160.83785368 </i>
    <i name="e_wo_entrp">   -160.83785368 </i>
    <i name="e_0_energy">   -160.83785368 </i>
   </energy>
  </scstep>
  <scstep>
   <time name="dav">   85.53   85.88</time>
   <time name="total">   86.06   86.42</time>
   <energy>
    <i name="e_fr_energy">   -160.87628312 </i>
    <i name="e_wo_entrp">   -160.87628312 </i>
    <i name="e_0_energy">   -160.87628312 </i>
   </energy>
  </scstep>
  <scstep>
   <time name="dav">   82.80   83.14</time>
   <time name="total">   83.28   83.66</time>
   <energy>
    <i name="e_fr_energy">   -153.39521737 </i>
    <i name="e_wo_entrp">   -153.39521737 </i>
    <i name="e_0_energy">   -153.39521737 </i>
   </energy>
  </scstep>
  <scstep>
   <time name="dav">   82.22   82.56</time>
   <time name="total">   82.80   83.17</time>
   <energy>
    <i name="e_fr_energy">   -152.97829455 </i>
    <i name="e_wo_entrp">   -152.97829454 </i>
    <i name="e_0_energy">   -152.97829454 </i>
   </energy>
  </scstep>
  <scstep>
   <time name="dav">   83.69   84.08</time>
   <time name="total">   84.33   84.74</time>
   <energy>
    <i name="e_fr_energy">   -152.99244068 </i>
    <i name="e_wo_entrp">   -152.99244068 </i>
    <i name="e_0_energy">   -152.99244068 </i>
   </energy>
  </scstep>
  <scstep>
   <time name="dav">   84.48   84.84</time>
   <time name="total">   85.05   85.44</time>
   <energy>
    <i name="e_fr_energy">   -153.00181278 </i>
    <i name="e_wo_entrp">   -153.00181278 </i>
    <i name="e_0_energy">   -153.00181278 </i>
   </energy>
  </scstep>
  <scstep>
   <time name="dav">   84.12   84.46</time>
   <time name="total">   84.61   84.97</time>
   <energy>
    <i name="e_fr_energy">   -153.00001195 </i>
    <i name="e_wo_entrp">   -153.00001195 </i>
    <i name="e_0_energy">   -153.00001195 </i>
   </energy>
  </scstep>
  <scstep>
   <time name="dav">   83.63   83.96</time>
   <time name="total">   84.20   84.55</time>
   <energy>
    <i name="e_fr_energy">   -153.00132354 </i>
    <i name="e_wo_entrp">   -153.00132354 </i>
    <i name="e_0_energy">   -153.00132354 </i>
   </energy>
  </scstep>
  <scstep>
   <time name="dav">   80.73   81.09</time>
   <time name="total">   80.76   81.16</time>
   <energy>
    <i name="alphaZ">   1414.89185941 </i>
    <i name="ewald"> -32055.27565288 </i>
    <i name="hartreedc"> -16892.90990462 </i>
    <i name="XCdc">   -736.17440346 </i>
    <i name="pawpsdc">  52713.32798523 </i>
    <i name="pawaedc"> -50373.87936544 </i>
    <i name="eentropy">     -0.00000000 </i>
    <i name="bandstr">  -2748.02615499 </i>
    <i name="atom">  48525.04422734 </i>
    <i name="e_fr_energy">   -153.00140941 </i>
    <i name="e_wo_entrp">   -153.00140941 </i>
    <i name="e_0_energy">   -153.00140941 </i>
   </energy>
  </scstep>
  <structure>
   <crystal>
    <varray name="basis" >
     <v>      13.52329754       0.00000000       0.00000000 </v>
     <v>       0.00000000      13.52329754       0.00000000 </v>
     <v>       0.00000000       0.00000000      13.52329754 </v>
    </varray>
    <i name="volume">   2473.13492757 </i>
    <varray name="rec_basis" >
     <v>       0.07394646       0.00000000       0.00000000 </v>
     <v>       0.00000000       0.07394646       0.00000000 </v>
     <v>       0.00000000       0.00000000       0.07394646 </v>
    </varray>
   </crystal>
   <varray name="positions" >
    <v>       0.00000000       0.00000000       0.00000000 </v>
    <v>       0.50000000       0.00000000       0.00000000 </v>
    <v>       0.00000000       0.50000000       0.00000000 </v>
    <v>       0.50000000       0.50000000       0.00000000 </v>
    <v>       0.00000000       0.00000000       0.50000000 </v>
    <v>       0.50000000       0.00000000       0.50000000 </v>
    <v>       0.00000000       0.50000000       0.50000000 </v>
    <v>       0.50000000       0.50000000       0.50000000 </v>
    <v>       0.00000000       0.25000000       0.25000000 </v>
    <v>       0.50000000       0.25000000       0.25000000 </v>
    <v>       0.00000000       0.75000000       0.25000000 </v>
    <v>       0.50000000       0.75000000       0.25000000 </v>
    <v>       0.00000000       0.25000000       0.75000000 </v>
    <v>       0.50000000       0.25000000       0.75000000 </v>
    <v>       0.00000000       0.75000000       0.75000000 </v>
    <v>       0.50000000       0.75000000       0.75000000 </v>
    <v>       0.25000000       0.00000000       0.25000000 </v>
    <v>       0.75000000       0.00000000       0.25000000 </v>
    <v>       0.25000000       0.50000000       0.25000000 </v>
    <v>       0.75000000       0.50000000       0.25000000 </v>
    <v>       0.25000000       0.00000000       0.75000000 </v>
    <v>       0.75000000       0.00000000       0.75000000 </v>
    <v>       0.25000000       0.50000000       0.75000000 </v>
    <v>       0.75000000       0.50000000       0.75000000 </v>
    <v>       0.25000000       0.25000000       0.00000000 </v>
    <v>       0.75000000       0.25000000       0.00000000 </v>
    <v>       0.25000000       0.75000000       0.00000000 </v>
    <v>       0.75000000       0.75000000       0.00000000 </v>
    <v>       0.25000000       0.25000000       0.50000000 </v>
    <v>       0.75000000       0.25000000       0.50000000 </v>
    <v>       0.25000000       0.75000000       0.50000000 </v>
    <v>       0.75000000       0.75000000       0.50000000 </v>
    <v>       0.12573946       0.12500000       0.12500000 </v>
    <v>       0.62500000       0.12500000       0.12500000 </v>
    <v>       0.12500000       0.62500000       0.12500000 </v>
    <v>       0.62500000       0.62500000       0.12500000 </v>
    <v>       0.12500000       0.12500000       0.62500000 </v>
    <v>       0.62500000       0.12500000       0.62500000 </v>
    <v>       0.12500000       0.62500000       0.62500000 </v>
    <v>       0.62500000       0.62500000       0.62500000 </v>
    <v>       0.12500000       0.37500000       0.37500000 </v>
    <v>       0.62500000       0.37500000       0.37500000 </v>
    <v>       0.12500000       0.87500000       0.37500000 </v>
    <v>       0.62500000       0.87500000       0.37500000 </v>
    <v>       0.12500000       0.37500000       0.87500000 </v>
    <v>       0.62500000       0.37500000       0.87500000 </v>
    <v>       0.12500000       0.87500000       0.87500000 </v>
    <v>       0.62500000       0.87500000       0.87500000 </v>
    <v>       0.37500000       0.12500000       0.37500000 </v>
    <v>       0.87500000       0.12500000       0.37500000 </v>
    <v>       0.37500000       0.62500000       0.37500000 </v>
    <v>       0.87500000       0.62500000       0.37500000 </v>
    <v>       0.37500000       0.12500000       0.87500000 </v>
    <v>       0.87500000       0.12500000       0.87500000 </v>
    <v>       0.37500000       0.62500000       0.87500000 </v>
    <v>       0.87500000       0.62500000       0.87500000 </v>
    <v>       0.37500000       0.37500000       0.12500000 </v>
    <v>       0.87500000       0.37500000       0.12500000 </v>
    <v>       0.37500000       0.87500000       0.12500000 </v>
    <v>       0.87500000       0.87500000       0.12500000 </v>
    <v>       0.37500000       0.37500000       0.62500000 </v>
    <v>       0.87500000       0.37500000       0.62500000 </v>
    <v>       0.37500000       0.87500000       0.62500000 </v>
    <v>       0.87500000       0.87500000       0.62500000 </v>
   </varray>
  </structure>
  <varray name="forces" >
   <v>       0.00823047       0.00599341       0.00599341 </v>
   <v>      -0.00061596      -0.00001576      -0.00001576 </v>
   <v>       0.00037287       0.00027799      -0.00017795 </v>
   <v>      -0.00057302      -0.00041641       0.00061117 </v>
   <v>       0.00037287      -0.00017795       0.00027799 </v>
   <v>      -0.00057302       0.00061117      -0.00041641 </v>
   <v>       0.00031525      -0.00008736      -0.00008736 </v>
   <v>      -0.00020273       0.00004853       0.00004853 </v>
   <v>       0.00823047      -0.00599341      -0.00599341 </v>
   <v>      -0.00061596       0.00001576       0.00001576 </v>
   <v>       0.00037287      -0.00027799       0.00017795 </v>
   <v>      -0.00057302       0.00041641      -0.00061117 </v>
   <v>       0.00037287       0.00017795      -0.00027799 </v>
   <v>      -0.00057302      -0.00061117       0.00041641 </v>
   <v>       0.00031525       0.00008736       0.00008736 </v>
   <v>      -0.00020273      -0.00004853      -0.00004853 </v>
   <v>       0.00836001      -0.00620444       0.00620444 </v>
   <v>      -0.00061598       0.00001561      -0.00001561 </v>
   <v>       0.00037577      -0.00028083      -0.00018064 </v>
   <v>      -0.00057577       0.00041398       0.00060611 </v>
   <v>       0.00037577       0.00018064       0.00028083 </v>
   <v>      -0.00057577      -0.00060611      -0.00041398 </v>
   <v>       0.00032176       0.00008686      -0.00008686 </v>
   <v>      -0.00020636      -0.00004737       0.00004737 </v>
   <v>       0.00836001       0.00620444      -0.00620444 </v>
   <v>      -0.00061598      -0.00001561       0.00001561 </v>
   <v>       0.00037577       0.00028083       0.00018064 </v>
   <v>      -0.00057577      -0.00041398      -0.00060611 </v>
   <v>       0.00037577      -0.00018064      -0.00028083 </v>
   <v>      -0.00057577       0.00060611       0.00041398 </v>
   <v>       0.00032176      -0.00008686       0.00008686 </v>
   <v>      -0.00020636       0.00004737      -0.00004737 </v>
   <v>      -0.04646040       0.00000000      -0.00000000 </v>
   <v>       0.00041868       0.00000000      -0.00000000 </v>
   <v>      -0.00026197       0.00000000      -0.00000000 </v>
   <v>       0.00098294       0.00000000      -0.00000000 </v>
   <v>      -0.00026197       0.00000000      -0.00000000 </v>
   <v>       0.00098294       0.00000000      -0.00000000 </v>
   <v>      -0.00014686       0.00000000      -0.00000000 </v>
   <v>       0.00011344       0.00000000      -0.00000000 </v>
   <v>       0.00010992       0.00044175       0.00044175 </v>
   <v>       0.00034476      -0.00002770      -0.00002770 </v>
   <v>       0.00011590       0.00045415      -0.00045415 </v>
   <v>       0.00034533      -0.00002867       0.00002867 </v>
   <v>       0.00011590      -0.00045415       0.00045415 </v>
   <v>       0.00034533       0.00002867      -0.00002867 </v>
   <v>       0.00010992      -0.00044175      -0.00044175 </v>
   <v>       0.00034476       0.00002770       0.00002770 </v>
   <v>       0.00165656      -0.00044571       0.00194317 </v>
   <v>       0.00164418      -0.00044923      -0.00192227 </v>
   <v>       0.00000179       0.00002670       0.00012120 </v>
   <v>       0.00000473       0.00002780      -0.00011935 </v>
   <v>       0.00165656       0.00044571      -0.00194317 </v>
   <v>       0.00164418       0.00044923       0.00192227 </v>
   <v>       0.00000179      -0.00002670      -0.00012120 </v>
   <v>       0.00000473      -0.00002780       0.00011935 </v>
   <v>       0.00165656       0.00194317      -0.00044571 </v>
   <v>       0.00164418      -0.00192227      -0.00044923 </v>
   <v>       0.00165656      -0.00194317       0.00044571 </v>
   <v>       0.00164418       0.00192227       0.00044923 </v>
   <v>       0.00000179       0.00012120       0.00002670 </v>
   <v>       0.00000473      -0.00011935       0.00002780 </v>
   <v>       0.00000179      -0.00012120      -0.00002670 </v>
   <v>       0.00000473       0.00011935      -0.00002780 </v>
  </varray>
  <varray name="stress" >
   <v>     -21.64159451       0.00000000      -0.00000000 </v>
   <v>       0.00000000     -21.64128387      -0.01889547 </v>
   <v>      -0.00000000      -0.01889547     -21.64128387 </v>
  </varray>
  <energy>
   <i name="e_fr_energy">   -153.00140941 </i>
   <i name="e_wo_entrp">   -153.00140941 </i>
   <i name="e_0_energy">   -153.00140941 </i>
  </energy>
  <time name="totalsc"> 1174.55 1180.75</time>
  <eigenvalues>
   <array>
    <dimension dim="1">band</dimension>
    <dimension dim="2">kpoint</dimension>
    <dimension dim="3">spin</dimension>
    <field>eigene</field>
    <field>occ</field>
    <set>
     <set comment="spin 1">
      <set comment="kpoint 1">
       <r>   -9.2498    1.0000 </r>
       <r>   -9.0571    1.0000 </r>
       <r>   -9.0569    1.0000 </r>
       <r>   -9.0569    1.0000 </r>
       <r>   -9.0569    1.0000 </r>
       <r>   -9.0569    1.0000 </r>
       <r>   -9.0567    1.0000 </r>
       <r>   -8.9633    1.0000 </r>
       <r>   -8.9633    1.0000 </r>
       <r>   -8.9631    1.0000 </r>
       <r>   -8.9629    1.0000 </r>
       <r>   -8.9628    1.0000 </r>
       <r>   -8.9628    1.0000 </r>
       <r>   -8.9628    1.0000 </r>
       <r>   -8.9628    1.0000 </r>
       <r>   -8.9628    1.0000 </r>
       <r>   -8.9625    1.0000 </r>
       <r>   -8.9625    1.0000 </r>
       <r>   -8.9625    1.0000 </r>
       <r>   -8.9611    1.0000 </r>
       <r>   -8.9610    1.0000 </r>
       <r>   -8.9608    1.0000 </r>
       <r>   -8.9608    1.0000 </r>
       <r>   -8.8743    1.0000 </r>
       <r>   -8.8738    1.0000 </r>
       <r>   -8.8738    1.0000 </r>
       <r>   -8.8738    1.0000 </r>
       <r>   -8.8738    1.0000 </r>
       <r>   -8.8737    1.0000 </r>
       <r>   -8.8728    1.0000 </r>
       <r>   -8.8728    1.0000 </r>
       <r>   -8.8725    1.0000 </r>
       <r>   -6.6384    1.0000 </r>
       <r>   -6.6383    1.0000 </r>
       <r>   -6.6383    1.0000 </r>
       <r>   -6.5950    1.0000 </r>
       <r>   -6.5948    1.0000 </r>
       <r>   -6.5948    1.0000 </r>
       <r>   -6.5947    1.0000 </r>
       <r>   -6.5947    1.0000 </r>
       <r>   -6.5947    1.0000 </r>
       <r>   -6.5946    1.0000 </r>
       <r>   -6.5945    1.0000 </r>
       <r>   -6.5861    1.0000 </r>
       <r>   -6.5856    1.0000 </r>
       <r>   -6.5856    1.0000 </r>
       <r>   -6.5855    1.0000 </r>
       <r>   -6.5855    1.0000 </r>
       <r>   -6.5855    1.0000 </r>
       <r>   -6.5855    1.0000 </r>
       <r>   -6.5855    1.0000 </r>
       <r>   -6.5855    1.0000 </r>
       <r>   -6.5854    1.0000 </r>
       <r>   -6.5854    1.0000 </r>
       <r>   -6.5852    1.0000 </r>
       <r>   -6.5843    1.0000 </r>
       <r>   -6.5841    1.0000 </r>
       <r>   -6.5840    1.0000 </r>
       <r>   -6.5840    1.0000 </r>
       <r>   -6.5840    1.0000 </r>
       <r>   -6.5840    1.0000 </r>
       <r>   -6.5840    1.0000 </r>
       <r>   -6.5839    1.0000 </r>
       <r>   -6.5839    1.0000 </r>
       <r>   -6.5839    1.0000 </r>
       <r>   -6.5839    1.0000 </r>
       <r>   -6.5835    1.0000 </r>
       <r>   -6.5817    1.0000 </r>
       <r>   -6.5815    1.0000 </r>
       <r>   -6.5814    1.0000 </r>
       <r>   -6.5814    1.0000 </r>
       <r>   -6.5814    1.0000 </r>
       <r>   -6.5814    1.0000 </r>
       <r>   -6.5813    1.0000 </r>
       <r>   -6.5813    1.0000 </r>
       <r>   -6.5813    1.0000 </r>
       <r>   -6.5813    1.0000 </r>
       <r>   -6.5812    1.0000 </r>
       <r>   -6.5809    1.0000 </r>
       <r>   -6.5570    1.0000 </r>
       <r>   -6.5569    1.0000 </r>
       <r>   -6.5569    1.0000 </r>
       <r>   -6.5568    1.0000 </r>
       <r>   -6.5568    1.0000 </r>
       <r>   -6.5567    1.0000 </r>
       <r>   -6.5475    1.0000 </r>
       <r>   -6.5473    1.0000 </r>
       <r>   -6.5473    1.0000 </r>
       <r>   -6.5473    1.0000 </r>
       <r>   -6.5473    1.0000 </r>
       <r>   -6.5471    1.0000 </r>
       <r>   -6.5284    1.0000 </r>
       <r>   -6.5282    1.0000 </r>
       <r>   -6.5282    1.0000 </r>
       <r>   -6.5282    1.0000 </r>
       <r>   -6.5282    1.0000 </r>
       <r>   -6.5279    1.0000 </r>
       <r>   -6.5202    1.0000 </r>
       <r>   -6.5201    1.0000 </r>
       <r>   -6.5200    1.0000 </r>
       <r>   -6.5103    1.0000 </r>
       <r>   -6.5102    1.0000 </r>
       <r>   -6.5102    1.0000 </r>
       <r>   -6.5102    1.0000 </r>
       <r>   -6.5102    1.0000 </r>
       <r>   -6.5100    1.0000 </r>
       <r>   -6.4791    1.0000 </r>
       <r>   -6.4791    1.0000 </r>
       <r>   -6.4790    1.0000 </r>
       <r>   -6.4790    1.0000 </r>
       <r>   -6.4790    1.0000 </r>
       <r>   -6.4790    1.0000 </r>
       <r>   -6.4640    1.0000 </r>
       <r>   -6.4640    1.0000 </r>
       <r>   -6.4640    1.0000 </r>
       <r>   -6.4640    1.0000 </r>
       <r>   -6.4639    1.0000 </r>
       <r>   -6.4639    1.0000 </r>
       <r>   -6.4638    1.0000 </r>
       <r>   -6.4638    1.0000 </r>
       <r>   -6.4638    1.0000 </r>
       <r>   -6.4638    1.0000 </r>
       <r>   -6.4637    1.0000 </r>
       <r>   -6.4637    1.0000 </r>
       <r>   -6.4625    1.0000 </r>
       <r>   -6.4625    1.0000 </r>
       <r>   -6.4625    1.0000 </r>
       <r>   -6.4624    1.0000 </r>
       <r>   -6.4624    1.0000 </r>
       <r>   -6.4624    1.0000 </r>
       <r>   -6.4623    1.0000 </r>
       <r>   -6.4623    1.0000 </r>
       <r>   -6.4623    1.0000 </r>
       <r>   -6.4622    1.0000 </r>
       <r>   -6.4622    1.0000 </r>
       <r>   -6.4622    1.0000 </r>
       <r>   -6.4604    1.0000 </r>
       <r>   -6.4604    1.0000 </r>
       <r>   -6.4572    1.0000 </r>
       <r>   -6.4571    1.0000 </r>
       <r>   -6.4571    1.0000 </r>
       <r>   -6.4570    1.0000 </r>
       <r>   -6.4570    1.0000 </r>
       <r>   -6.4570    1.0000 </r>
       <r>   -6.4533    1.0000 </r>
       <r>   -6.4533    1.0000 </r>
       <r>   -6.4532    1.0000 </r>
       <r>   -6.4532    1.0000 </r>
       <r>   -6.4531    1.0000 </r>
       <r>   -6.4531    1.0000 </r>
       <r>   -6.4531    1.0000 </r>
       <r>   -6.4530    1.0000 </r>
       <r>   -6.4492    1.0000 </r>
       <r>   -6.4491    1.0000 </r>
       <r>   -6.4491    1.0000 </r>
       <r>   -6.4491    1.0000 </r>
       <r>   -6.4490    1.0000 </r>
       <r>   -6.4490    1.0000 </r>
       <r>   -6.4386    1.0000 </r>
       <r>   -6.4385    1.0000 </r>
       <r>   -6.4384    1.0000 </r>
       <r>   -6.4252    1.0000 </r>
       <r>   -6.4252    1.0000 </r>
       <r>   -6.4251    1.0000 </r>
       <r>   -6.4251    1.0000 </r>
       <r>   -6.4250    1.0000 </r>
       <r>   -6.4250    1.0000 </r>
       <r>   -6.2419    1.0000 </r>
       <r>   -6.2417    1.0000 </r>
       <r>   -6.2416    1.0000 </r>
       <r>   -6.2416    1.0000 </r>
       <r>   -6.2416    1.0000 </r>
       <r>   -6.2415    1.0000 </r>
       <r>   -6.2415    1.0000 </r>
       <r>   -6.2415    1.0000 </r>
       <r>   -6.2415    1.0000 </r>
       <r>   -6.2415    1.0000 </r>
       <r>   -6.2414    1.0000 </r>
       <r>   -6.2411    1.0000 </r>
       <r>   -6.2007    1.0000 </r>
       <r>   -6.2007    1.0000 </r>
       <r>   -6.2007    1.0000 </r>
       <r>   -6.2007    1.0000 </r>
       <r>   -6.1012    1.0000 </r>
       <r>   -6.1012    1.0000 </r>
       <r>   -6.1012    1.0000 </r>
       <r>   -6.0519    1.0000 </r>
       <r>   -6.0518    1.0000 </r>
       <r>   -6.0518    1.0000 </r>
       <r>   -6.0518    1.0000 </r>
       <r>   -6.0518    1.0000 </r>
       <r>   -6.0517    1.0000 </r>
       <r>   -2.4819    1.0000 </r>
       <r>   -2.4814    1.0000 </r>
       <r>   -2.4812    1.0000 </r>
       <r>   -2.4808    1.0000 </r>
       <r>   -2.4558    1.0000 </r>
       <r>   -2.4552    1.0000 </r>
       <r>   -2.4546    1.0000 </r>
       <r>   -2.3451    1.0000 </r>
       <r>   -2.3438    1.0000 </r>
       <r>   -2.3437    1.0000 </r>
       <r>   -2.3437    1.0000 </r>
       <r>   -2.3436    1.0000 </r>
       <r>   -2.3424    1.0000 </r>
       <r>   -1.9697    1.0000 </r>
       <r>   -1.9683    1.0000 </r>
       <r>   -1.9678    1.0000 </r>
       <r>   -1.9678    1.0000 </r>
       <r>   -1.9677    1.0000 </r>
       <r>   -1.9677    1.0000 </r>
       <r>   -1.9677    1.0000 </r>
       <r>   -1.9677    1.0000 </r>
       <r>   -1.9675    1.0000 </r>
       <r>   -1.9675    1.0000 </r>
       <r>   -1.9670    1.0000 </r>
       <r>   -1.9656    1.0000 </r>
       <r>   -1.1581    1.0000 </r>
       <r>   -1.1575    1.0000 </r>
       <r>   -1.1572    1.0000 </r>
       <r>   -1.1572    1.0000 </r>
       <r>   -1.1570    1.0000 </r>
       <r>   -1.1563    1.0000 </r>
       <r>   -0.5804    1.0000 </r>
       <r>   -0.5803    1.0000 </r>
       <r>   -0.5802    1.0000 </r>
       <r>   -0.5802    1.0000 </r>
       <r>   -0.5802    1.0000 </r>
       <r>   -0.5801    1.0000 </r>
       <r>   -0.4334    1.0000 </r>
       <r>   -0.4328    1.0000 </r>
       <r>   -0.4325    1.0000 </r>
       <r>   -0.4325    1.0000 </r>
       <r>   -0.4322    1.0000 </r>
       <r>   -0.4318    1.0000 </r>
       <r>   -0.4248    1.0000 </r>
       <r>   -0.4247    1.0000 </r>
       <r>   -0.4245    1.0000 </r>
       <r>   -0.4239    1.0000 </r>
       <r>   -0.4238    1.0000 </r>
       <r>   -0.4238    1.0000 </r>
       <r>   -0.4238    1.0000 </r>
       <r>   -0.4238    1.0000 </r>
       <r>   -0.4237    1.0000 </r>
       <r>   -0.4229    1.0000 </r>
       <r>   -0.4229    1.0000 </r>
       <r>   -0.4227    1.0000 </r>
       <r>   -0.1912    1.0000 </r>
       <r>   -0.1909    1.0000 </r>
       <r>   -0.1909    1.0000 </r>
       <r>   -0.1909    1.0000 </r>
       <r>   -0.1909    1.0000 </r>
       <r>   -0.1906    1.0000 </r>
       <r>    0.4349    1.0000 </r>
       <r>    0.4356    1.0000 </r>
       <r>    0.4362    1.0000 </r>
       <r>    0.4363    1.0000 </r>
       <r>    0.4363    1.0000 </r>
       <r>    0.4363    1.0000 </r>
       <r>    0.4363    1.0000 </r>
       <r>    0.4363    1.0000 </r>
       <r>    0.4364    1.0000 </r>
       <r>    0.4364    1.0000 </r>
       <r>    0.4370    1.0000 </r>
       <r>    0.4377    1.0000 </r>
       <r>    0.6509    1.0000 </r>
       <r>    0.6510    1.0000 </r>
       <r>    0.6517    1.0000 </r>
       <r>    0.6519    1.0000 </r>
       <r>    0.6519    1.0000 </r>
       <r>    0.6519    1.0000 </r>
       <r>    0.6519    1.0000 </r>
       <r>    0.6520    1.0000 </r>
       <r>    0.6520    1.0000 </r>
       <r>    0.6522    1.0000 </r>
       <r>    0.6529    1.0000 </r>
       <r>    0.6529    1.0000 </r>
       <r>    0.6742    1.0000 </r>
       <r>    0.6745    1.0000 </r>
       <r>    0.6749    1.0000 </r>
       <r>    0.6749    1.0000 </r>
       <r>    0.6749    1.0000 </r>
       <r>    0.6749    1.0000 </r>
       <r>    0.6754    1.0000 </r>
       <r>    0.6757    1.0000 </r>
       <r>    1.2803    1.0000 </r>
       <r>    1.2805    1.0000 </r>
       <r>    1.2808    1.0000 </r>
       <r>    1.6751    0.0000 </r>
       <r>    2.9596    0.0000 </r>
       <r>    2.9602    0.0000 </r>
       <r>    2.9605    0.0000 </r>
       <r>    2.9611    0.0000 </r>
       <r>    3.9177    0.0000 </r>
       <r>    3.9191    0.0000 </r>
       <r>    3.9200    0.0000 </r>
       <r>    3.9256    0.0000 </r>
       <r>    3.9266    0.0000 </r>
       <r>    3.9271    0.0000 </r>
       <r>    3.9271    0.0000 </r>
       <r>    3.9276    0.0000 </r>
       <r>    3.9291    0.0000 </r>
       <r>    4.1240    0.0000 </r>
       <r>    4.1255    0.0000 </r>
       <r>    4.1268    0.0000 </r>
       <r>    4.1269    0.0000 </r>
       <r>    4.1269    0.0000 </r>
       <r>    4.1269    0.0000 </r>
       <r>    4.1270    0.0000 </r>
       <r>    4.1270    0.0000 </r>
       <r>    4.1270    0.0000 </r>
       <r>    4.1271    0.0000 </r>
       <r>    4.1281    0.0000 </r>
       <r>    4.1300    0.0000 </r>
       <r>    4.1405    0.0000 </r>
       <r>    4.1405    0.0000 </r>
       <r>    4.1408    0.0000 </r>
       <r>    4.7298    0.0000 </r>
       <r>    4.7302    0.0000 </r>
       <r>    4.7303    0.0000 </r>
       <r>    4.7303    0.0000 </r>
       <r>    4.7303    0.0000 </r>
       <r>    4.7307    0.0000 </r>
       <r>    5.0729    0.0000 </r>
       <r>    5.0752    0.0000 </r>
       <r>    5.0753    0.0000 </r>
       <r>    5.0753    0.0000 </r>
       <r>    5.0754    0.0000 </r>
       <r>    5.0777    0.0000 </r>
       <r>    5.9418    0.0000 </r>
       <r>    5.9420    0.0000 </r>
       <r>    5.9422    0.0000 </r>
       <r>    5.9808    0.0000 </r>
       <r>    5.9817    0.0000 </r>
       <r>    5.9820    0.0000 </r>
       <r>    5.9820    0.0000 </r>
       <r>    5.9823    0.0000 </r>
       <r>    5.9832    0.0000 </r>
       <r>    6.4466    0.0000 </r>
       <r>    6.4477    0.0000 </r>
       <r>    6.4484    0.0000 </r>
       <r>    6.4489    0.0000 </r>
       <r>    6.4490    0.0000 </r>
       <r>    6.4491    0.0000 </r>
       <r>    6.4492    0.0000 </r>
       <r>    6.4493    0.0000 </r>
       <r>    6.4494    0.0000 </r>
       <r>    6.4499    0.0000 </r>
       <r>    6.4506    0.0000 </r>
       <r>    6.4515    0.0000 </r>
       <r>    6.4916    0.0000 </r>
       <r>    6.4916    0.0000 </r>
       <r>    6.4923    0.0000 </r>
       <r>    6.4924    0.0000 </r>
       <r>    6.4926    0.0000 </r>
       <r>    6.4927    0.0000 </r>
       <r>    6.4935    0.0000 </r>
       <r>    6.4936    0.0000 </r>
       <r>    6.6708    0.0000 </r>
       <r>    6.6710    0.0000 </r>
       <r>    6.6710    0.0000 </r>
       <r>    6.6711    0.0000 </r>
       <r>    6.6711    0.0000 </r>
       <r>    6.6714    0.0000 </r>
       <r>    6.7264    0.0000 </r>
       <r>    6.7271    0.0000 </r>
       <r>    6.7280    0.0000 </r>
       <r>    6.7282    0.0000 </r>
       <r>    6.7283    0.0000 </r>
       <r>    6.7284    0.0000 </r>
       <r>    6.7284    0.0000 </r>
       <r>    6.7284    0.0000 </r>
       <r>    6.7285    0.0000 </r>
       <r>    6.7288    0.0000 </r>
       <r>    6.7297    0.0000 </r>
       <r>    6.7304    0.0000 </r>
       <r>    7.0283    0.0000 </r>
       <r>    7.0287    0.0000 </r>
       <r>    7.0297    0.0000 </r>
       <r>    7.0300    0.0000 </r>
       <r>    7.0301    0.0000 </r>
       <r>    7.0303    0.0000 </r>
       <r>    7.0314    0.0000 </r>
       <r>    7.0315    0.0000 </r>
      </set>
      <set comment="kpoint 2">
       <r>   -9.2238    1.0000 </r>
       <r>   -9.1528    1.0000 </r>
       <r>   -9.0441    1.0000 </r>
       <r>   -9.0440    1.0000 </r>
       <r>   -9.0440    1.0000 </r>
       <r>   -9.0440    1.0000 </r>
       <r>   -9.0093    1.0000 </r>
       <r>   -9.0093    1.0000 </r>
       <r>   -9.0093    1.0000 </r>
       <r>   -9.0093    1.0000 </r>
       <r>   -8.9632    1.0000 </r>
       <r>   -8.9627    1.0000 </r>
       <r>   -8.9627    1.0000 </r>
       <r>   -8.9624    1.0000 </r>
       <r>   -8.9623    1.0000 </r>
       <r>   -8.9616    1.0000 </r>
       <r>   -8.9615    1.0000 </r>
       <r>   -8.9612    1.0000 </r>
       <r>   -8.9612    1.0000 </r>
       <r>   -8.9177    1.0000 </r>
       <r>   -8.9177    1.0000 </r>
       <r>   -8.9176    1.0000 </r>
       <r>   -8.9176    1.0000 </r>
       <r>   -8.8966    1.0000 </r>
       <r>   -8.8854    1.0000 </r>
       <r>   -8.8854    1.0000 </r>
       <r>   -8.8854    1.0000 </r>
       <r>   -8.8854    1.0000 </r>
       <r>   -8.8739    1.0000 </r>
       <r>   -8.8735    1.0000 </r>
       <r>   -8.8731    1.0000 </r>
       <r>   -8.8726    1.0000 </r>
       <r>   -6.6314    1.0000 </r>
       <r>   -6.6313    1.0000 </r>
       <r>   -6.6198    1.0000 </r>
       <r>   -6.6122    1.0000 </r>
       <r>   -6.6120    1.0000 </r>
       <r>   -6.5939    1.0000 </r>
       <r>   -6.5939    1.0000 </r>
       <r>   -6.5939    1.0000 </r>
       <r>   -6.5938    1.0000 </r>
       <r>   -6.5925    1.0000 </r>
       <r>   -6.5923    1.0000 </r>
       <r>   -6.5922    1.0000 </r>
       <r>   -6.5920    1.0000 </r>
       <r>   -6.5918    1.0000 </r>
       <r>   -6.5918    1.0000 </r>
       <r>   -6.5917    1.0000 </r>
       <r>   -6.5917    1.0000 </r>
       <r>   -6.5916    1.0000 </r>
       <r>   -6.5916    1.0000 </r>
       <r>   -6.5916    1.0000 </r>
       <r>   -6.5916    1.0000 </r>
       <r>   -6.5871    1.0000 </r>
       <r>   -6.5869    1.0000 </r>
       <r>   -6.5867    1.0000 </r>
       <r>   -6.5866    1.0000 </r>
       <r>   -6.5863    1.0000 </r>
       <r>   -6.5862    1.0000 </r>
       <r>   -6.5862    1.0000 </r>
       <r>   -6.5860    1.0000 </r>
       <r>   -6.5858    1.0000 </r>
       <r>   -6.5857    1.0000 </r>
       <r>   -6.5857    1.0000 </r>
       <r>   -6.5855    1.0000 </r>
       <r>   -6.5852    1.0000 </r>
       <r>   -6.5851    1.0000 </r>
       <r>   -6.5850    1.0000 </r>
       <r>   -6.5850    1.0000 </r>
       <r>   -6.5732    1.0000 </r>
       <r>   -6.5731    1.0000 </r>
       <r>   -6.5731    1.0000 </r>
       <r>   -6.5729    1.0000 </r>
       <r>   -6.5663    1.0000 </r>
       <r>   -6.5662    1.0000 </r>
       <r>   -6.5662    1.0000 </r>
       <r>   -6.5661    1.0000 </r>
       <r>   -6.5649    1.0000 </r>
       <r>   -6.5625    1.0000 </r>
       <r>   -6.5624    1.0000 </r>
       <r>   -6.5624    1.0000 </r>
       <r>   -6.5622    1.0000 </r>
       <r>   -6.5580    1.0000 </r>
       <r>   -6.5578    1.0000 </r>
       <r>   -6.5517    1.0000 </r>
       <r>   -6.5516    1.0000 </r>
       <r>   -6.5516    1.0000 </r>
       <r>   -6.5515    1.0000 </r>
       <r>   -6.5498    1.0000 </r>
       <r>   -6.5498    1.0000 </r>
       <r>   -6.5447    1.0000 </r>
       <r>   -6.5445    1.0000 </r>
       <r>   -6.5374    1.0000 </r>
       <r>   -6.5372    1.0000 </r>
       <r>   -6.5364    1.0000 </r>
       <r>   -6.5362    1.0000 </r>
       <r>   -6.5359    1.0000 </r>
       <r>   -6.5359    1.0000 </r>
       <r>   -6.5174    1.0000 </r>
       <r>   -6.5103    1.0000 </r>
       <r>   -6.5073    1.0000 </r>
       <r>   -6.5072    1.0000 </r>
       <r>   -6.4953    1.0000 </r>
       <r>   -6.4952    1.0000 </r>
       <r>   -6.4952    1.0000 </r>
       <r>   -6.4952    1.0000 </r>
       <r>   -6.4895    1.0000 </r>
       <r>   -6.4895    1.0000 </r>
       <r>   -6.4769    1.0000 </r>
       <r>   -6.4769    1.0000 </r>
       <r>   -6.4769    1.0000 </r>
       <r>   -6.4769    1.0000 </r>
       <r>   -6.4755    1.0000 </r>
       <r>   -6.4755    1.0000 </r>
       <r>   -6.4755    1.0000 </r>
       <r>   -6.4755    1.0000 </r>
       <r>   -6.4712    1.0000 </r>
       <r>   -6.4712    1.0000 </r>
       <r>   -6.4712    1.0000 </r>
       <r>   -6.4711    1.0000 </r>
       <r>   -6.4642    1.0000 </r>
       <r>   -6.4620    1.0000 </r>
       <r>   -6.4610    1.0000 </r>
       <r>   -6.4610    1.0000 </r>
       <r>   -6.4609    1.0000 </r>
       <r>   -6.4608    1.0000 </r>
       <r>   -6.4597    1.0000 </r>
       <r>   -6.4597    1.0000 </r>
       <r>   -6.4595    1.0000 </r>
       <r>   -6.4595    1.0000 </r>
       <r>   -6.4590    1.0000 </r>
       <r>   -6.4577    1.0000 </r>
       <r>   -6.4577    1.0000 </r>
       <r>   -6.4577    1.0000 </r>
       <r>   -6.4577    1.0000 </r>
       <r>   -6.4566    1.0000 </r>
       <r>   -6.4566    1.0000 </r>
       <r>   -6.4566    1.0000 </r>
       <r>   -6.4566    1.0000 </r>
       <r>   -6.4556    1.0000 </r>
       <r>   -6.4556    1.0000 </r>
       <r>   -6.4555    1.0000 </r>
       <r>   -6.4555    1.0000 </r>
       <r>   -6.4553    1.0000 </r>
       <r>   -6.4553    1.0000 </r>
       <r>   -6.4553    1.0000 </r>
       <r>   -6.4552    1.0000 </r>
       <r>   -6.4552    1.0000 </r>
       <r>   -6.4552    1.0000 </r>
       <r>   -6.4550    1.0000 </r>
       <r>   -6.4550    1.0000 </r>
       <r>   -6.4545    1.0000 </r>
       <r>   -6.4504    1.0000 </r>
       <r>   -6.4504    1.0000 </r>
       <r>   -6.4504    1.0000 </r>
       <r>   -6.4504    1.0000 </r>
       <r>   -6.4496    1.0000 </r>
       <r>   -6.4495    1.0000 </r>
       <r>   -6.4439    1.0000 </r>
       <r>   -6.4416    1.0000 </r>
       <r>   -6.4414    1.0000 </r>
       <r>   -6.4399    1.0000 </r>
       <r>   -6.4042    1.0000 </r>
       <r>   -6.4041    1.0000 </r>
       <r>   -6.4041    1.0000 </r>
       <r>   -6.4039    1.0000 </r>
       <r>   -6.3373    1.0000 </r>
       <r>   -6.3372    1.0000 </r>
       <r>   -6.3372    1.0000 </r>
       <r>   -6.3371    1.0000 </r>
       <r>   -6.2959    1.0000 </r>
       <r>   -6.2316    1.0000 </r>
       <r>   -6.2316    1.0000 </r>
       <r>   -6.2316    1.0000 </r>
       <r>   -6.2315    1.0000 </r>
       <r>   -6.2112    1.0000 </r>
       <r>   -6.2112    1.0000 </r>
       <r>   -6.2111    1.0000 </r>
       <r>   -6.2111    1.0000 </r>
       <r>   -6.1608    1.0000 </r>
       <r>   -6.1457    1.0000 </r>
       <r>   -6.1456    1.0000 </r>
       <r>   -6.1456    1.0000 </r>
       <r>   -6.1456    1.0000 </r>
       <r>   -6.0883    1.0000 </r>
       <r>   -6.0883    1.0000 </r>
       <r>   -6.0764    1.0000 </r>
       <r>   -6.0764    1.0000 </r>
       <r>   -6.0764    1.0000 </r>
       <r>   -6.0764    1.0000 </r>
       <r>   -6.0634    1.0000 </r>
       <r>   -6.0634    1.0000 </r>
       <r>   -2.4305    1.0000 </r>
       <r>   -2.4292    1.0000 </r>
       <r>   -2.3806    1.0000 </r>
       <r>   -2.3801    1.0000 </r>
       <r>   -2.3799    1.0000 </r>
       <r>   -2.3794    1.0000 </r>
       <r>   -2.3750    1.0000 </r>
       <r>   -2.3736    1.0000 </r>
       <r>   -2.3109    1.0000 </r>
       <r>   -2.3102    1.0000 </r>
       <r>   -2.3102    1.0000 </r>
       <r>   -2.3095    1.0000 </r>
       <r>   -2.2840    1.0000 </r>
       <r>   -2.1934    1.0000 </r>
       <r>   -2.1928    1.0000 </r>
       <r>   -2.1927    1.0000 </r>
       <r>   -2.1921    1.0000 </r>
       <r>   -2.1332    1.0000 </r>
       <r>   -2.1326    1.0000 </r>
       <r>   -2.1324    1.0000 </r>
       <r>   -2.1317    1.0000 </r>
       <r>   -1.8202    1.0000 </r>
       <r>   -1.6500    1.0000 </r>
       <r>   -1.6493    1.0000 </r>
       <r>   -1.6493    1.0000 </r>
       <r>   -1.6486    1.0000 </r>
       <r>   -1.3189    1.0000 </r>
       <r>   -1.3181    1.0000 </r>
       <r>   -1.3181    1.0000 </r>
       <r>   -1.3173    1.0000 </r>
       <r>   -0.7025    1.0000 </r>
       <r>   -0.7024    1.0000 </r>
       <r>   -0.7024    1.0000 </r>
       <r>   -0.7024    1.0000 </r>
       <r>   -0.6585    1.0000 </r>
       <r>   -0.6583    1.0000 </r>
       <r>   -0.6583    1.0000 </r>
       <r>   -0.6582    1.0000 </r>
       <r>   -0.4864    1.0000 </r>
       <r>   -0.4863    1.0000 </r>
       <r>   -0.3763    1.0000 </r>
       <r>   -0.3763    1.0000 </r>
       <r>   -0.3660    1.0000 </r>
       <r>   -0.2927    1.0000 </r>
       <r>   -0.2926    1.0000 </r>
       <r>   -0.2559    1.0000 </r>
       <r>   -0.2559    1.0000 </r>
       <r>   -0.1471    1.0000 </r>
       <r>   -0.1469    1.0000 </r>
       <r>   -0.1464    1.0000 </r>
       <r>   -0.1461    1.0000 </r>
       <r>   -0.1194    1.0000 </r>
       <r>   -0.1192    1.0000 </r>
       <r>   -0.1192    1.0000 </r>
       <r>   -0.1190    1.0000 </r>
       <r>   -0.1144    1.0000 </r>
       <r>   -0.1141    1.0000 </r>
       <r>   -0.0711    1.0000 </r>
       <r>   -0.0707    1.0000 </r>
       <r>   -0.0707    1.0000 </r>
       <r>   -0.0704    1.0000 </r>
       <r>    0.1053    1.0000 </r>
       <r>    0.1056    1.0000 </r>
       <r>    0.2786    1.0000 </r>
       <r>    0.2791    1.0000 </r>
       <r>    0.2791    1.0000 </r>
       <r>    0.2796    1.0000 </r>
       <r>    0.3244    1.0000 </r>
       <r>    0.3246    1.0000 </r>
       <r>    0.3246    1.0000 </r>
       <r>    0.3249    1.0000 </r>
       <r>    0.3819    1.0000 </r>
       <r>    0.3823    1.0000 </r>
       <r>    0.3823    1.0000 </r>
       <r>    0.3828    1.0000 </r>
       <r>    0.5092    1.0000 </r>
       <r>    0.5501    1.0000 </r>
       <r>    0.5502    1.0000 </r>
       <r>    0.5502    1.0000 </r>
       <r>    0.5502    1.0000 </r>
       <r>    0.6571    1.0000 </r>
       <r>    0.6576    1.0000 </r>
       <r>    0.6576    1.0000 </r>
       <r>    0.6582    1.0000 </r>
       <r>    0.6686    1.0000 </r>
       <r>    0.6691    1.0000 </r>
       <r>    0.6692    1.0000 </r>
       <r>    0.6697    1.0000 </r>
       <r>    0.7068    1.0000 </r>
       <r>    0.7070    1.0000 </r>
       <r>    0.7070    1.0000 </r>
       <r>    0.7072    1.0000 </r>
       <r>    0.8172    1.0000 </r>
       <r>    0.8176    1.0000 </r>
       <r>    1.1450    1.0000 </r>
       <r>    1.1455    1.0000 </r>
       <r>    2.4696    0.0000 </r>
       <r>    3.2738    0.0000 </r>
       <r>    3.2743    0.0000 </r>
       <r>    3.2745    0.0000 </r>
       <r>    3.2750    0.0000 </r>
       <r>    3.3539    0.0000 </r>
       <r>    3.8425    0.0000 </r>
       <r>    3.8429    0.0000 </r>
       <r>    3.8430    0.0000 </r>
       <r>    3.8434    0.0000 </r>
       <r>    3.9328    0.0000 </r>
       <r>    3.9706    0.0000 </r>
       <r>    3.9722    0.0000 </r>
       <r>    3.9723    0.0000 </r>
       <r>    3.9738    0.0000 </r>
       <r>    4.0038    0.0000 </r>
       <r>    4.0261    0.0000 </r>
       <r>    4.0275    0.0000 </r>
       <r>    4.0275    0.0000 </r>
       <r>    4.0289    0.0000 </r>
       <r>    4.1598    0.0000 </r>
       <r>    4.1619    0.0000 </r>
       <r>    4.2567    0.0000 </r>
       <r>    4.4142    0.0000 </r>
       <r>    4.4152    0.0000 </r>
       <r>    4.4154    0.0000 </r>
       <r>    4.4166    0.0000 </r>
       <r>    4.4197    0.0000 </r>
       <r>    4.4198    0.0000 </r>
       <r>    4.4829    0.0000 </r>
       <r>    4.7169    0.0000 </r>
       <r>    4.7190    0.0000 </r>
       <r>    4.8355    0.0000 </r>
       <r>    4.8367    0.0000 </r>
       <r>    4.8367    0.0000 </r>
       <r>    4.8379    0.0000 </r>
       <r>    5.0066    0.0000 </r>
       <r>    5.0069    0.0000 </r>
       <r>    5.0069    0.0000 </r>
       <r>    5.0072    0.0000 </r>
       <r>    5.1409    0.0000 </r>
       <r>    5.1681    0.0000 </r>
       <r>    5.1681    0.0000 </r>
       <r>    5.6555    0.0000 </r>
       <r>    5.7643    0.0000 </r>
       <r>    5.7645    0.0000 </r>
       <r>    5.7645    0.0000 </r>
       <r>    5.7647    0.0000 </r>
       <r>    6.0907    0.0000 </r>
       <r>    6.0911    0.0000 </r>
       <r>    6.0911    0.0000 </r>
       <r>    6.0914    0.0000 </r>
       <r>    6.1577    0.0000 </r>
       <r>    6.1581    0.0000 </r>
       <r>    6.2766    0.0000 </r>
       <r>    6.2767    0.0000 </r>
       <r>    6.2775    0.0000 </r>
       <r>    6.2776    0.0000 </r>
       <r>    6.2979    0.0000 </r>
       <r>    6.2982    0.0000 </r>
       <r>    6.2982    0.0000 </r>
       <r>    6.2986    0.0000 </r>
       <r>    6.3720    0.0000 </r>
       <r>    6.3724    0.0000 </r>
       <r>    6.3732    0.0000 </r>
       <r>    6.3736    0.0000 </r>
       <r>    6.5923    0.0000 </r>
       <r>    6.5926    0.0000 </r>
       <r>    6.5926    0.0000 </r>
       <r>    6.5928    0.0000 </r>
       <r>    6.5994    0.0000 </r>
       <r>    6.5997    0.0000 </r>
       <r>    6.6002    0.0000 </r>
       <r>    6.6005    0.0000 </r>
       <r>    6.6258    0.0000 </r>
       <r>    6.6261    0.0000 </r>
       <r>    6.6264    0.0000 </r>
       <r>    6.6264    0.0000 </r>
       <r>    6.6267    0.0000 </r>
       <r>    6.6268    0.0000 </r>
       <r>    6.6272    0.0000 </r>
       <r>    6.6272    0.0000 </r>
       <r>    6.7284    0.0000 </r>
       <r>    6.7288    0.0000 </r>
       <r>    6.8600    0.0000 </r>
       <r>    6.8603    0.0000 </r>
       <r>    6.8609    0.0000 </r>
       <r>    6.8612    0.0000 </r>
       <r>    7.0327    0.0000 </r>
       <r>    7.0328    0.0000 </r>
       <r>    7.0328    0.0000 </r>
       <r>    7.0329    0.0000 </r>
       <r>    7.2266    0.0000 </r>
       <r>    7.2268    0.0000 </r>
       <r>    7.2286    0.0000 </r>
       <r>    7.2490    0.0000 </r>
      </set>
      <set comment="kpoint 3">
       <r>   -9.2238    1.0000 </r>
       <r>   -9.1528    1.0000 </r>
       <r>   -9.0442    1.0000 </r>
       <r>   -9.0441    1.0000 </r>
       <r>   -9.0440    1.0000 </r>
       <r>   -9.0439    1.0000 </r>
       <r>   -9.0095    1.0000 </r>
       <r>   -9.0093    1.0000 </r>
       <r>   -9.0093    1.0000 </r>
       <r>   -9.0091    1.0000 </r>
       <r>   -8.9632    1.0000 </r>
       <r>   -8.9625    1.0000 </r>
       <r>   -8.9624    1.0000 </r>
       <r>   -8.9624    1.0000 </r>
       <r>   -8.9623    1.0000 </r>
       <r>   -8.9616    1.0000 </r>
       <r>   -8.9615    1.0000 </r>
       <r>   -8.9615    1.0000 </r>
       <r>   -8.9614    1.0000 </r>
       <r>   -8.9178    1.0000 </r>
       <r>   -8.9177    1.0000 </r>
       <r>   -8.9176    1.0000 </r>
       <r>   -8.9175    1.0000 </r>
       <r>   -8.8966    1.0000 </r>
       <r>   -8.8856    1.0000 </r>
       <r>   -8.8854    1.0000 </r>
       <r>   -8.8854    1.0000 </r>
       <r>   -8.8852    1.0000 </r>
       <r>   -8.8735    1.0000 </r>
       <r>   -8.8735    1.0000 </r>
       <r>   -8.8730    1.0000 </r>
       <r>   -8.8730    1.0000 </r>
       <r>   -6.6313    1.0000 </r>
       <r>   -6.6313    1.0000 </r>
       <r>   -6.6198    1.0000 </r>
       <r>   -6.6121    1.0000 </r>
       <r>   -6.6121    1.0000 </r>
       <r>   -6.5940    1.0000 </r>
       <r>   -6.5939    1.0000 </r>
       <r>   -6.5939    1.0000 </r>
       <r>   -6.5938    1.0000 </r>
       <r>   -6.5924    1.0000 </r>
       <r>   -6.5923    1.0000 </r>
       <r>   -6.5922    1.0000 </r>
       <r>   -6.5922    1.0000 </r>
       <r>   -6.5918    1.0000 </r>
       <r>   -6.5917    1.0000 </r>
       <r>   -6.5917    1.0000 </r>
       <r>   -6.5917    1.0000 </r>
       <r>   -6.5917    1.0000 </r>
       <r>   -6.5916    1.0000 </r>
       <r>   -6.5916    1.0000 </r>
       <r>   -6.5914    1.0000 </r>
       <r>   -6.5869    1.0000 </r>
       <r>   -6.5869    1.0000 </r>
       <r>   -6.5868    1.0000 </r>
       <r>   -6.5868    1.0000 </r>
       <r>   -6.5862    1.0000 </r>
       <r>   -6.5861    1.0000 </r>
       <r>   -6.5861    1.0000 </r>
       <r>   -6.5860    1.0000 </r>
       <r>   -6.5858    1.0000 </r>
       <r>   -6.5858    1.0000 </r>
       <r>   -6.5857    1.0000 </r>
       <r>   -6.5857    1.0000 </r>
       <r>   -6.5852    1.0000 </r>
       <r>   -6.5851    1.0000 </r>
       <r>   -6.5851    1.0000 </r>
       <r>   -6.5848    1.0000 </r>
       <r>   -6.5731    1.0000 </r>
       <r>   -6.5731    1.0000 </r>
       <r>   -6.5730    1.0000 </r>
       <r>   -6.5730    1.0000 </r>
       <r>   -6.5664    1.0000 </r>
       <r>   -6.5662    1.0000 </r>
       <r>   -6.5662    1.0000 </r>
       <r>   -6.5660    1.0000 </r>
       <r>   -6.5649    1.0000 </r>
       <r>   -6.5624    1.0000 </r>
       <r>   -6.5624    1.0000 </r>
       <r>   -6.5623    1.0000 </r>
       <r>   -6.5623    1.0000 </r>
       <r>   -6.5579    1.0000 </r>
       <r>   -6.5579    1.0000 </r>
       <r>   -6.5517    1.0000 </r>
       <r>   -6.5516    1.0000 </r>
       <r>   -6.5516    1.0000 </r>
       <r>   -6.5514    1.0000 </r>
       <r>   -6.5498    1.0000 </r>
       <r>   -6.5498    1.0000 </r>
       <r>   -6.5446    1.0000 </r>
       <r>   -6.5446    1.0000 </r>
       <r>   -6.5373    1.0000 </r>
       <r>   -6.5373    1.0000 </r>
       <r>   -6.5364    1.0000 </r>
       <r>   -6.5363    1.0000 </r>
       <r>   -6.5359    1.0000 </r>
       <r>   -6.5358    1.0000 </r>
       <r>   -6.5174    1.0000 </r>
       <r>   -6.5103    1.0000 </r>
       <r>   -6.5073    1.0000 </r>
       <r>   -6.5072    1.0000 </r>
       <r>   -6.4954    1.0000 </r>
       <r>   -6.4953    1.0000 </r>
       <r>   -6.4952    1.0000 </r>
       <r>   -6.4951    1.0000 </r>
       <r>   -6.4895    1.0000 </r>
       <r>   -6.4895    1.0000 </r>
       <r>   -6.4769    1.0000 </r>
       <r>   -6.4769    1.0000 </r>
       <r>   -6.4769    1.0000 </r>
       <r>   -6.4768    1.0000 </r>
       <r>   -6.4756    1.0000 </r>
       <r>   -6.4755    1.0000 </r>
       <r>   -6.4755    1.0000 </r>
       <r>   -6.4754    1.0000 </r>
       <r>   -6.4713    1.0000 </r>
       <r>   -6.4712    1.0000 </r>
       <r>   -6.4712    1.0000 </r>
       <r>   -6.4711    1.0000 </r>
       <r>   -6.4642    1.0000 </r>
       <r>   -6.4621    1.0000 </r>
       <r>   -6.4610    1.0000 </r>
       <r>   -6.4610    1.0000 </r>
       <r>   -6.4608    1.0000 </r>
       <r>   -6.4608    1.0000 </r>
       <r>   -6.4597    1.0000 </r>
       <r>   -6.4596    1.0000 </r>
       <r>   -6.4595    1.0000 </r>
       <r>   -6.4595    1.0000 </r>
       <r>   -6.4590    1.0000 </r>
       <r>   -6.4578    1.0000 </r>
       <r>   -6.4577    1.0000 </r>
       <r>   -6.4577    1.0000 </r>
       <r>   -6.4576    1.0000 </r>
       <r>   -6.4567    1.0000 </r>
       <r>   -6.4566    1.0000 </r>
       <r>   -6.4566    1.0000 </r>
       <r>   -6.4565    1.0000 </r>
       <r>   -6.4557    1.0000 </r>
       <r>   -6.4557    1.0000 </r>
       <r>   -6.4555    1.0000 </r>
       <r>   -6.4555    1.0000 </r>
       <r>   -6.4554    1.0000 </r>
       <r>   -6.4554    1.0000 </r>
       <r>   -6.4553    1.0000 </r>
       <r>   -6.4552    1.0000 </r>
       <r>   -6.4551    1.0000 </r>
       <r>   -6.4551    1.0000 </r>
       <r>   -6.4549    1.0000 </r>
       <r>   -6.4549    1.0000 </r>
       <r>   -6.4545    1.0000 </r>
       <r>   -6.4505    1.0000 </r>
       <r>   -6.4504    1.0000 </r>
       <r>   -6.4504    1.0000 </r>
       <r>   -6.4503    1.0000 </r>
       <r>   -6.4496    1.0000 </r>
       <r>   -6.4496    1.0000 </r>
       <r>   -6.4439    1.0000 </r>
       <r>   -6.4415    1.0000 </r>
       <r>   -6.4415    1.0000 </r>
       <r>   -6.4399    1.0000 </r>
       <r>   -6.4042    1.0000 </r>
       <r>   -6.4041    1.0000 </r>
       <r>   -6.4040    1.0000 </r>
       <r>   -6.4039    1.0000 </r>
       <r>   -6.3373    1.0000 </r>
       <r>   -6.3372    1.0000 </r>
       <r>   -6.3372    1.0000 </r>
       <r>   -6.3371    1.0000 </r>
       <r>   -6.2959    1.0000 </r>
       <r>   -6.2317    1.0000 </r>
       <r>   -6.2316    1.0000 </r>
       <r>   -6.2316    1.0000 </r>
       <r>   -6.2314    1.0000 </r>
       <r>   -6.2112    1.0000 </r>
       <r>   -6.2112    1.0000 </r>
       <r>   -6.2111    1.0000 </r>
       <r>   -6.2111    1.0000 </r>
       <r>   -6.1608    1.0000 </r>
       <r>   -6.1457    1.0000 </r>
       <r>   -6.1456    1.0000 </r>
       <r>   -6.1456    1.0000 </r>
       <r>   -6.1456    1.0000 </r>
       <r>   -6.0883    1.0000 </r>
       <r>   -6.0883    1.0000 </r>
       <r>   -6.0764    1.0000 </r>
       <r>   -6.0764    1.0000 </r>
       <r>   -6.0764    1.0000 </r>
       <r>   -6.0764    1.0000 </r>
       <r>   -6.0634    1.0000 </r>
       <r>   -6.0634    1.0000 </r>
       <r>   -2.4299    1.0000 </r>
       <r>   -2.4299    1.0000 </r>
       <r>   -2.3806    1.0000 </r>
       <r>   -2.3801    1.0000 </r>
       <r>   -2.3798    1.0000 </r>
       <r>   -2.3794    1.0000 </r>
       <r>   -2.3743    1.0000 </r>
       <r>   -2.3743    1.0000 </r>
       <r>   -2.3111    1.0000 </r>
       <r>   -2.3102    1.0000 </r>
       <r>   -2.3102    1.0000 </r>
       <r>   -2.3093    1.0000 </r>
       <r>   -2.2840    1.0000 </r>
       <r>   -2.1936    1.0000 </r>
       <r>   -2.1928    1.0000 </r>
       <r>   -2.1927    1.0000 </r>
       <r>   -2.1919    1.0000 </r>
       <r>   -2.1331    1.0000 </r>
       <r>   -2.1327    1.0000 </r>
       <r>   -2.1323    1.0000 </r>
       <r>   -2.1318    1.0000 </r>
       <r>   -1.8202    1.0000 </r>
       <r>   -1.6499    1.0000 </r>
       <r>   -1.6493    1.0000 </r>
       <r>   -1.6493    1.0000 </r>
[...]
      </set>
     </set>
    </set>
   </array>
  </eigenvalues>
  <separator name="orbital magnetization" >
   <v name="MAGDIPOLOUT">      0.00000000      0.00000000      0.00000000</v>
  </separator>
  <dos>
   <i name="efermi">      1.48126279 </i>
   <total>
    <array>
     <dimension dim="1">gridpoints</dimension>
     <dimension dim="2">spin</dimension>
     <field>energy</field>
     <field>total</field>
     <field>integrated</field>
     <set>
      <set comment="spin 1">
       <r>   -10.0765     0.0000     0.0000 </r>
       <r>   -10.0159     0.0000     0.0000 </r>
       <r>    -9.9553     0.0000     0.0000 </r>
       <r>    -9.8946     0.0000     0.0000 </r>
       <r>    -9.8340     0.0000     0.0000 </r>
       <r>    -9.7734     0.0000     0.0000 </r>
       <r>    -9.7128     0.0000     0.0000 </r>
       <r>    -9.6521     0.0000     0.0000 </r>
       <r>    -9.5915     0.0000     0.0000 </r>
       <r>    -9.5309     0.0000     0.0000 </r>
       <r>    -9.4703     0.0000     0.0000 </r>
       <r>    -9.4097     0.0000     0.0000 </r>
       <r>    -9.3490     0.0047     0.0003 </r>
       <r>    -9.2884     0.5066     0.0310 </r>
       <r>    -9.2278     7.8075     0.5043 </r>
       <r>    -9.1672    27.5268     2.1731 </r>
       <r>    -9.1065    53.6730     5.4270 </r>
       <r>    -9.0459    87.9046    10.7562 </r>
       <r>    -8.9853   165.3218    20.7788 </r>
       <r>    -8.9247   308.7518    39.4968 </r>
       <r>    -8.8640   315.8672    58.6461 </r>
       <r>    -8.8034    85.1881    63.8106 </r>
       <r>    -8.7428     3.1143    63.9994 </r>
       <r>    -8.6822     0.0101    64.0000 </r>
       <r>    -8.6215     0.0000    64.0000 </r>
       <r>    -8.5609     0.0000    64.0000 </r>
       <r>    -8.5003     0.0000    64.0000 </r>
       <r>    -8.4397     0.0000    64.0000 </r>
       <r>    -8.3790     0.0000    64.0000 </r>
       <r>    -8.3184     0.0000    64.0000 </r>
       <r>    -8.2578     0.0000    64.0000 </r>
       <r>    -8.1972     0.0000    64.0000 </r>
       <r>    -8.1365     0.0000    64.0000 </r>
       <r>    -8.0759     0.0000    64.0000 </r>
       <r>    -8.0153     0.0000    64.0000 </r>
       <r>    -7.9547     0.0000    64.0000 </r>
       <r>    -7.8940     0.0000    64.0000 </r>
       <r>    -7.8334     0.0000    64.0000 </r>
       <r>    -7.7728     0.0000    64.0000 </r>
       <r>    -7.7122     0.0000    64.0000 </r>
       <r>    -7.6515     0.0000    64.0000 </r>
       <r>    -7.5909     0.0000    64.0000 </r>
       <r>    -7.5303     0.0000    64.0000 </r>
       <r>    -7.4697     0.0000    64.0000 </r>
       <r>    -7.4090     0.0000    64.0000 </r>
       <r>    -7.3484     0.0000    64.0000 </r>
       <r>    -7.2878     0.0000    64.0000 </r>
       <r>    -7.2272     0.0000    64.0000 </r>
       <r>    -7.1665     0.0000    64.0000 </r>
       <r>    -7.1059     0.0000    64.0000 </r>
       <r>    -7.0453     0.0000    64.0000 </r>
       <r>    -6.9847     0.0000    64.0000 </r>
       <r>    -6.9240     0.0000    64.0000 </r>
       <r>    -6.8634     0.0000    64.0000 </r>
       <r>    -6.8028     0.0000    64.0000 </r>
       <r>    -6.7422     0.0789    64.0048 </r>
       <r>    -6.6815    13.6827    64.8343 </r>
       <r>    -6.6209   301.5062    83.1130 </r>
       <r>    -6.5603  1114.3410   150.6695 </r>
       <r>    -6.4997  1095.7022   217.0961 </r>
       <r>    -6.4390  1282.1803   294.8278 </r>
       <r>    -6.3784   583.9427   330.2291 </r>
       <r>    -6.3178   106.7762   336.7024 </r>
       <r>    -6.2572   107.2032   343.2015 </r>
       <r>    -6.1965   156.6146   352.6962 </r>
       <r>    -6.1359   204.8638   365.1160 </r>
       <r>    -6.0753   216.1177   378.2181 </r>
       <r>    -6.0147    88.3735   383.5757 </r>
       <r>    -5.9540     6.9344   383.9961 </r>
       <r>    -5.8934     0.0647   384.0000 </r>
       <r>    -5.8328     0.0001   384.0000 </r>
       <r>    -5.7722     0.0000   384.0000 </r>
       <r>    -5.7115     0.0000   384.0000 </r>
       <r>    -5.6509     0.0000   384.0000 </r>
       <r>    -5.5903     0.0000   384.0000 </r>
       <r>    -5.5297     0.0000   384.0000 </r>
       <r>    -5.4690     0.0000   384.0000 </r>
       <r>    -5.4084     0.0000   384.0000 </r>
       <r>    -5.3478     0.0000   384.0000 </r>
       <r>    -5.2872     0.0000   384.0000 </r>
       <r>    -5.2266     0.0000   384.0000 </r>
       <r>    -5.1659     0.0000   384.0000 </r>
       <r>    -5.1053     0.0000   384.0000 </r>
       <r>    -5.0447     0.0000   384.0000 </r>
       <r>    -4.9841     0.0000   384.0000 </r>
       <r>    -4.9234     0.0000   384.0000 </r>
       <r>    -4.8628     0.0000   384.0000 </r>
       <r>    -4.8022     0.0000   384.0000 </r>
       <r>    -4.7416     0.0000   384.0000 </r>
       <r>    -4.6809     0.0000   384.0000 </r>
       <r>    -4.6203     0.0000   384.0000 </r>
       <r>    -4.5597     0.0000   384.0000 </r>
       <r>    -4.4991     0.0000   384.0000 </r>
       <r>    -4.4384     0.0000   384.0000 </r>
       <r>    -4.3778     0.0000   384.0000 </r>
       <r>    -4.3172     0.0000   384.0000 </r>
       <r>    -4.2566     0.0000   384.0000 </r>
       <r>    -4.1959     0.0000   384.0000 </r>
       <r>    -4.1353     0.0000   384.0000 </r>
       <r>    -4.0747     0.0000   384.0000 </r>
       <r>    -4.0141     0.0000   384.0000 </r>
       <r>    -3.9534     0.0000   384.0000 </r>
       <r>    -3.8928     0.0000   384.0000 </r>
       <r>    -3.8322     0.0000   384.0000 </r>
       <r>    -3.7716     0.0000   384.0000 </r>
       <r>    -3.7109     0.0000   384.0000 </r>
       <r>    -3.6503     0.0000   384.0000 </r>
       <r>    -3.5897     0.0000   384.0000 </r>
       <r>    -3.5291     0.0000   384.0000 </r>
       <r>    -3.4684     0.0000   384.0000 </r>
       <r>    -3.4078     0.0000   384.0000 </r>
       <r>    -3.3472     0.0000   384.0000 </r>
       <r>    -3.2866     0.0000   384.0000 </r>
       <r>    -3.2259     0.0000   384.0000 </r>
       <r>    -3.1653     0.0000   384.0000 </r>
       <r>    -3.1047     0.0000   384.0000 </r>
       <r>    -3.0441     0.0000   384.0000 </r>
       <r>    -2.9834     0.0000   384.0000 </r>
       <r>    -2.9228     0.0000   384.0000 </r>
       <r>    -2.8622     0.0000   384.0000 </r>
       <r>    -2.8016     0.0000   384.0000 </r>
       <r>    -2.7409     0.0000   384.0000 </r>
       <r>    -2.6803     0.0000   384.0000 </r>
       <r>    -2.6197     0.0002   384.0000 </r>
       <r>    -2.5591     0.0765   384.0047 </r>
       <r>    -2.4984     2.5485   384.1592 </r>
       <r>    -2.4378    22.4136   385.5180 </r>
       <r>    -2.3772    77.3635   390.2081 </r>
       <r>    -2.3166   170.5497   400.5476 </r>
       <r>    -2.2559   184.3095   411.7213 </r>
       <r>    -2.1953    60.1506   415.3679 </r>
       <r>    -2.1347    78.0721   420.1010 </r>
       <r>    -2.0741    45.4124   422.8541 </r>
       <r>    -2.0134    25.0216   424.3710 </r>
       <r>    -1.9528    33.1093   426.3783 </r>
       <r>    -1.8922    30.0908   428.2025 </r>
       <r>    -1.8316    53.5248   431.4474 </r>
       <r>    -1.7709    32.2772   433.4042 </r>
       <r>    -1.7103     3.7140   433.6294 </r>
       <r>    -1.6497    13.3044   434.4360 </r>
       <r>    -1.5891    13.6494   435.2635 </r>
       <r>    -1.5284     6.8692   435.6799 </r>
       <r>    -1.4678    19.0539   436.8350 </r>
       <r>    -1.4072    18.9475   437.9837 </r>
       <r>    -1.3466    19.7613   439.1818 </r>
       <r>    -1.2859    19.1611   440.3434 </r>
       <r>    -1.2253     5.8609   440.6987 </r>
       <r>    -1.1647     8.9880   441.2436 </r>
       <r>    -1.1041    11.1298   441.9183 </r>
       <r>    -1.0435     1.3426   441.9997 </r>
       <r>    -0.9828     1.1871   442.0717 </r>
       <r>    -0.9222    13.1070   442.8663 </r>
       <r>    -0.8616    14.3150   443.7341 </r>
       <r>    -0.8010     8.5176   444.2505 </r>
       <r>    -0.7403    19.8683   445.4550 </r>
       <r>    -0.6797    50.4094   448.5111 </r>
       <r>    -0.6191    74.2414   453.0119 </r>
       <r>    -0.5585    84.1687   458.1146 </r>
       <r>    -0.4978    56.4358   461.5360 </r>
       <r>    -0.4372    66.6899   465.5791 </r>
       <r>    -0.3766    78.4178   470.3331 </r>
       <r>    -0.3160    44.0645   473.0045 </r>
       <r>    -0.2553    51.3328   476.1166 </r>
       <r>    -0.1947    73.0762   480.5468 </r>
       <r>    -0.1341    81.0840   485.4625 </r>
       <r>    -0.0735   109.5705   492.1051 </r>
       <r>    -0.0128   112.0548   498.8984 </r>
       <r>     0.0478   105.0882   505.2693 </r>
       <r>     0.1084    61.9279   509.0237 </r>
       <r>     0.1690    60.0360   512.6634 </r>
       <r>     0.2297    71.6018   517.0042 </r>
       <r>     0.2903    94.5317   522.7352 </r>
       <r>     0.3509   113.3515   529.6070 </r>
       <r>     0.4115    97.6454   535.5268 </r>
       <r>     0.4722    62.9162   539.3410 </r>
       <r>     0.5328    75.3208   543.9073 </r>
       <r>     0.5934    70.0231   548.1525 </r>
       <r>     0.6540    84.5521   553.2784 </r>
       <r>     0.7147   112.5150   560.0996 </r>
       <r>     0.7753    35.3292   562.2414 </r>
       <r>     0.8359    39.8179   564.6553 </r>
       <r>     0.8965    37.8858   566.9522 </r>
       <r>     0.9572    36.9029   569.1894 </r>
       <r>     1.0178    45.4695   571.9460 </r>
       <r>     1.0784    18.3330   573.0574 </r>
       <r>     1.1390    18.5730   574.1834 </r>
       <r>     1.1997    15.0726   575.0971 </r>
       <r>     1.2603    10.5355   575.7358 </r>
       <r>     1.3209     3.8660   575.9702 </r>
       <r>     1.3815     0.4833   575.9995 </r>
       <r>     1.4422     0.0078   576.0000 </r>
       <r>     1.5028     0.0000   576.0000 </r>
       <r>     1.5634     0.0010   576.0001 </r>
       <r>     1.6240     0.0899   576.0055 </r>
       <r>     1.6847     0.6504   576.0449 </r>
       <r>     1.7453     0.4518   576.0723 </r>
       <r>     1.8059     0.0286   576.0741 </r>
       <r>     1.8665     0.0001   576.0741 </r>
       <r>     1.9272     0.0000   576.0741 </r>
       <r>     1.9878     0.0000   576.0741 </r>
       <r>     2.0484     0.0000   576.0741 </r>
       <r>     2.1090     0.0000   576.0741 </r>
       <r>     2.1697     0.0000   576.0741 </r>
       <r>     2.2303     0.0000   576.0741 </r>
       <r>     2.2909     0.0000   576.0741 </r>
       <r>     2.3515     0.0031   576.0743 </r>
       <r>     2.4122     0.3785   576.0972 </r>
       <r>     2.4728     3.5452   576.3121 </r>
       <r>     2.5334     3.1432   576.5027 </r>
       <r>     2.5940     0.2600   576.5185 </r>
       <r>     2.6547     0.1978   576.5305 </r>
       <r>     2.7153     4.3442   576.7938 </r>
       <r>     2.7759     9.3919   577.3632 </r>
       <r>     2.8365     7.0938   577.7933 </r>
       <r>     2.8971     3.4209   578.0006 </r>
       <r>     2.9578     2.4434   578.1488 </r>
       <r>     3.0184     5.4089   578.4767 </r>
       <r>     3.0790     5.8060   578.8287 </r>
       <r>     3.1396     0.9839   578.8883 </r>
       <r>     3.2003     1.1758   578.9596 </r>
       <r>     3.2609    25.0805   580.4801 </r>
       <r>     3.3215    67.2980   584.5600 </r>
       <r>     3.3821    43.7379   587.2116 </r>
       <r>     3.4428    15.5338   588.1533 </r>
       <r>     3.5034     1.2813   588.2310 </r>
       <r>     3.5640     3.8873   588.4667 </r>
       <r>     3.6246     9.2342   589.0265 </r>
       <r>     3.6853    17.0909   590.0626 </r>
       <r>     3.7459    50.6443   593.1329 </r>
       <r>     3.8065    36.9846   595.3751 </r>
       <r>     3.8671    54.7469   598.6941 </r>
       <r>     3.9278    29.7184   600.4958 </r>
       <r>     3.9884    31.8925   602.4293 </r>
       <r>     4.0490    34.6875   604.5322 </r>
       <r>     4.1096    48.7010   607.4847 </r>
       <r>     4.1703   120.3148   614.7787 </r>
       <r>     4.2309   129.9336   622.6559 </r>
       <r>     4.2915    37.6814   624.9403 </r>
       <r>     4.3521    24.2145   626.4083 </r>
       <r>     4.4128    72.5814   630.8085 </r>
       <r>     4.4734    58.9464   634.3821 </r>
       <r>     4.5340    34.2450   636.4582 </r>
       <r>     4.5946    13.5816   637.2816 </r>
       <r>     4.6553    26.6709   638.8985 </r>
       <r>     4.7159    44.3996   641.5902 </r>
       <r>     4.7765    32.9084   643.5853 </r>
       <r>     4.8371    18.5224   644.7082 </r>
       <r>     4.8978    21.1625   645.9911 </r>
       <r>     4.9584    23.9874   647.4454 </r>
       <r>     5.0190    30.7435   649.3092 </r>
       <r>     5.0796    21.5766   650.6173 </r>
       <r>     5.1403    27.8553   652.3060 </r>
       <r>     5.2009    19.5508   653.4912 </r>
       <r>     5.2615    18.5090   654.6133 </r>
       <r>     5.3221    19.2097   655.7779 </r>
       <r>     5.3828    27.0805   657.4197 </r>
       <r>     5.4434    26.5801   659.0311 </r>
       <r>     5.5040    21.1695   660.3145 </r>
       <r>     5.5646     6.1939   660.6900 </r>
       <r>     5.6253    19.1943   661.8536 </r>
       <r>     5.6859    72.5434   666.2515 </r>
       <r>     5.7465    83.0468   671.2862 </r>
       <r>     5.8071    46.9408   674.1320 </r>
       <r>     5.8678     6.2684   674.5120 </r>
       <r>     5.9284    18.2703   675.6196 </r>
       <r>     5.9890    72.2264   679.9983 </r>
       <r>     6.0496    95.4347   685.7840 </r>
       <r>     6.1103    91.6721   691.3416 </r>
       <r>     6.1709    52.9619   694.5524 </r>
       <r>     6.2315    37.8891   696.8494 </r>
       <r>     6.2921    74.3280   701.3555 </r>
       <r>     6.3528    52.9930   704.5682 </r>
       <r>     6.4134    38.3999   706.8962 </r>
       <r>     6.4740    45.6182   709.6618 </r>
       <r>     6.5346    31.5599   711.5751 </r>
       <r>     6.5953    67.4621   715.6650 </r>
       <r>     6.6559   128.1868   723.4362 </r>
       <r>     6.7165    79.3603   728.2474 </r>
       <r>     6.7771    84.7831   733.3874 </r>
       <r>     6.8378    94.9415   739.1432 </r>
       <r>     6.8984    90.1565   744.6089 </r>
       <r>     6.9590    53.0704   747.8262 </r>
       <r>     7.0196    70.3842   752.0933 </r>
       <r>     7.0802    59.8486   755.7216 </r>
       <r>     7.1409    63.9634   759.5993 </r>
       <r>     7.2015    58.2652   763.1316 </r>
       <r>     7.2621    58.9447   766.7051 </r>
       <r>     7.3227    19.6651   767.8973 </r>
       <r>     7.3834     1.6687   767.9985 </r>
       <r>     7.4440     0.0249   768.0000 </r>
       <r>     7.5046     0.0000   768.0000 </r>
       <r>     7.5652     0.0000   768.0000 </r>
       <r>     7.6259     0.0000   768.0000 </r>
       <r>     7.6865     0.0000   768.0000 </r>
       <r>     7.7471     0.0000   768.0000 </r>
       <r>     7.8077     0.0000   768.0000 </r>
       <r>     7.8684     0.0000   768.0000 </r>
       <r>     7.9290     0.0000   768.0000 </r>
       <r>     7.9896     0.0000   768.0000 </r>
       <r>     8.0502     0.0000   768.0000 </r>
       <r>     8.1109     0.0000   768.0000 </r>
      </set>
     </set>
    </array>
   </total>
  </dos>
 </calculation>
 <structure name="finalpos" >
  <crystal>
   <varray name="basis" >
    <v>      13.52329754       0.00000000       0.00000000 </v>
    <v>       0.00000000      13.52329754       0.00000000 </v>
    <v>       0.00000000       0.00000000      13.52329754 </v>
   </varray>
   <i name="volume">   2473.13492757 </i>
   <varray name="rec_basis" >
    <v>       0.07394646       0.00000000       0.00000000 </v>
    <v>       0.00000000       0.07394646       0.00000000 </v>
    <v>       0.00000000       0.00000000       0.07394646 </v>
   </varray>
  </crystal>
  <varray name="positions" >
   <v>       0.00000000       0.00000000       0.00000000 </v>
   <v>       0.50000000       0.00000000       0.00000000 </v>
   <v>       0.00000000       0.50000000       0.00000000 </v>
   <v>       0.50000000       0.50000000       0.00000000 </v>
   <v>       0.00000000       0.00000000       0.50000000 </v>
   <v>       0.50000000       0.00000000       0.50000000 </v>
   <v>       0.00000000       0.50000000       0.50000000 </v>
   <v>       0.50000000       0.50000000       0.50000000 </v>
   <v>       0.00000000       0.25000000       0.25000000 </v>
   <v>       0.50000000       0.25000000       0.25000000 </v>
   <v>       0.00000000       0.75000000       0.25000000 </v>
   <v>       0.50000000       0.75000000       0.25000000 </v>
   <v>       0.00000000       0.25000000       0.75000000 </v>
   <v>       0.50000000       0.25000000       0.75000000 </v>
   <v>       0.00000000       0.75000000       0.75000000 </v>
   <v>       0.50000000       0.75000000       0.75000000 </v>
   <v>       0.25000000       0.00000000       0.25000000 </v>
   <v>       0.75000000       0.00000000       0.25000000 </v>
   <v>       0.25000000       0.50000000       0.25000000 </v>
   <v>       0.75000000       0.50000000       0.25000000 </v>
   <v>       0.25000000       0.00000000       0.75000000 </v>
   <v>       0.75000000       0.00000000       0.75000000 </v>
   <v>       0.25000000       0.50000000       0.75000000 </v>
   <v>       0.75000000       0.50000000       0.75000000 </v>
   <v>       0.25000000       0.25000000       0.00000000 </v>
   <v>       0.75000000       0.25000000       0.00000000 </v>
   <v>       0.25000000       0.75000000       0.00000000 </v>
   <v>       0.75000000       0.75000000       0.00000000 </v>
   <v>       0.25000000       0.25000000       0.50000000 </v>
   <v>       0.75000000       0.25000000       0.50000000 </v>
   <v>       0.25000000       0.75000000       0.50000000 </v>
   <v>       0.75000000       0.75000000       0.50000000 </v>
   <v>       0.12573946       0.12500000       0.12500000 </v>
   <v>       0.62500000       0.12500000       0.12500000 </v>
   <v>       0.12500000       0.62500000       0.12500000 </v>
   <v>       0.62500000       0.62500000       0.12500000 </v>
   <v>       0.12500000       0.12500000       0.62500000 </v>
   <v>       0.62500000       0.12500000       0.62500000 </v>
   <v>       0.12500000       0.62500000       0.62500000 </v>
   <v>       0.62500000       0.62500000       0.62500000 </v>
   <v>       0.12500000       0.37500000       0.37500000 </v>
   <v>       0.62500000       0.37500000       0.37500000 </v>
   <v>       0.12500000       0.87500000       0.37500000 </v>
   <v>       0.62500000       0.87500000       0.37500000 </v>
   <v>       0.12500000       0.37500000       0.87500000 </v>
   <v>       0.62500000       0.37500000       0.87500000 </v>
   <v>       0.12500000       0.87500000       0.87500000 </v>
   <v>       0.62500000       0.87500000       0.87500000 </v>
   <v>       0.37500000       0.12500000       0.37500000 </v>
   <v>       0.87500000       0.12500000       0.37500000 </v>
   <v>       0.37500000       0.62500000       0.37500000 </v>
   <v>       0.87500000       0.62500000       0.37500000 </v>
   <v>       0.37500000       0.12500000       0.87500000 </v>
   <v>       0.87500000       0.12500000       0.87500000 </v>
   <v>       0.37500000       0.62500000       0.87500000 </v>
   <v>       0.87500000       0.62500000       0.87500000 </v>
   <v>       0.37500000       0.37500000       0.12500000 </v>
   <v>       0.87500000       0.37500000       0.12500000 </v>
   <v>       0.37500000       0.87500000       0.12500000 </v>
   <v>       0.87500000       0.87500000       0.12500000 </v>
   <v>       0.37500000       0.37500000       0.62500000 </v>
   <v>       0.87500000       0.37500000       0.62500000 </v>
   <v>       0.37500000       0.87500000       0.62500000 </v>
   <v>       0.87500000       0.87500000       0.62500000 </v>
  </varray>
 </structure>
</modeling>
