<?xml version="1.0" encoding="ISO-8859-1"?>
<modeling>
 <generator>
  <i name="program" type="string">vasp </i>
  <i name="version" type="string">6.3.0  </i>
  <i name="subversion" type="string">20Jan22 (build Feb 10 2022 15:15:41) complex                          parallel </i>
  <i name="platform" type="string">LinuxIFC </i>
  <i name="date" type="string">2023 10 05 </i>
  <i name="time" type="string">12:06:08 </i>
 </generator>
 <incar>
  <i name="EDIFF">      0.00010000</i>
  <i name="ENCUT">    360.00000000</i>
  <i type="int" name="ISMEAR">     0</i>
  <i name="SIGMA">      0.05000000</i>
 </incar>
 <primitive_cell>
  <structure name="primitive_cell" >
   <crystal>
    <varray name="basis" >
     <v>      13.39071620       0.00000000       0.00000000 </v>
     <v>       0.00000000      13.39071620       0.00000000 </v>
     <v>       0.00000000       0.00000000      13.39071620 </v>
    </varray>
    <i name="volume">   2401.10646453 </i>
    <varray name="rec_basis" >
     <v>       0.07467860       0.00000000       0.00000000 </v>
     <v>       0.00000000       0.07467860       0.00000000 </v>
     <v>       0.00000000       0.00000000       0.07467860 </v>
    </varray>
   </crystal>
   <varray name="positions" >
    <v>       0.00074679       0.00000000       0.00000000 </v>
    <v>       0.50000000       0.00000000       0.00000000 </v>
    <v>       0.00000000       0.50000000       0.00000000 </v>
    <v>       0.50000000       0.50000000       0.00000000 </v>
    <v>       0.00000000       0.00000000       0.50000000 </v>
    <v>       0.50000000       0.00000000       0.50000000 </v>
    <v>       0.00000000       0.50000000       0.50000000 </v>
    <v>       0.50000000       0.50000000       0.50000000 </v>
    <v>       0.00000000       0.25000000       0.25000000 </v>
    <v>       0.50000000       0.25000000       0.25000000 </v>
    <v>       0.00000000       0.75000000       0.25000000 </v>
    <v>       0.50000000       0.75000000       0.25000000 </v>
    <v>       0.00000000       0.25000000       0.75000000 </v>
    <v>       0.50000000       0.25000000       0.75000000 </v>
    <v>       0.00000000       0.75000000       0.75000000 </v>
    <v>       0.50000000       0.75000000       0.75000000 </v>
    <v>       0.25000000       0.00000000       0.25000000 </v>
    <v>       0.75000000       0.00000000       0.25000000 </v>
    <v>       0.25000000       0.50000000       0.25000000 </v>
    <v>       0.75000000       0.50000000       0.25000000 </v>
    <v>       0.25000000       0.00000000       0.75000000 </v>
    <v>       0.75000000       0.00000000       0.75000000 </v>
    <v>       0.25000000       0.50000000       0.75000000 </v>
    <v>       0.75000000       0.50000000       0.75000000 </v>
    <v>       0.25000000       0.25000000       0.00000000 </v>
    <v>       0.75000000       0.25000000       0.00000000 </v>
    <v>       0.25000000       0.75000000       0.00000000 </v>
    <v>       0.75000000       0.75000000       0.00000000 </v>
    <v>       0.25000000       0.25000000       0.50000000 </v>
    <v>       0.75000000       0.25000000       0.50000000 </v>
    <v>       0.25000000       0.75000000       0.50000000 </v>
    <v>       0.75000000       0.75000000       0.50000000 </v>
    <v>       0.12500000       0.12500000       0.12500000 </v>
    <v>       0.62500000       0.12500000       0.12500000 </v>
    <v>       0.12500000       0.62500000       0.12500000 </v>
    <v>       0.62500000       0.62500000       0.12500000 </v>
    <v>       0.12500000       0.12500000       0.62500000 </v>
    <v>       0.62500000       0.12500000       0.62500000 </v>
    <v>       0.12500000       0.62500000       0.62500000 </v>
    <v>       0.62500000       0.62500000       0.62500000 </v>
    <v>       0.12500000       0.37500000       0.37500000 </v>
    <v>       0.62500000       0.37500000       0.37500000 </v>
    <v>       0.12500000       0.87500000       0.37500000 </v>
    <v>       0.62500000       0.87500000       0.37500000 </v>
    <v>       0.12500000       0.37500000       0.87500000 </v>
    <v>       0.62500000       0.37500000       0.87500000 </v>
    <v>       0.12500000       0.87500000       0.87500000 </v>
    <v>       0.62500000       0.87500000       0.87500000 </v>
    <v>       0.37500000       0.12500000       0.37500000 </v>
    <v>       0.87500000       0.12500000       0.37500000 </v>
    <v>       0.37500000       0.62500000       0.37500000 </v>
    <v>       0.87500000       0.62500000       0.37500000 </v>
    <v>       0.37500000       0.12500000       0.87500000 </v>
    <v>       0.87500000       0.12500000       0.87500000 </v>
    <v>       0.37500000       0.62500000       0.87500000 </v>
    <v>       0.87500000       0.62500000       0.87500000 </v>
    <v>       0.37500000       0.37500000       0.12500000 </v>
    <v>       0.87500000       0.37500000       0.12500000 </v>
    <v>       0.37500000       0.87500000       0.12500000 </v>
    <v>       0.87500000       0.87500000       0.12500000 </v>
    <v>       0.37500000       0.37500000       0.62500000 </v>
    <v>       0.87500000       0.37500000       0.62500000 </v>
    <v>       0.37500000       0.87500000       0.62500000 </v>
    <v>       0.87500000       0.87500000       0.62500000 </v>
   </varray>
  </structure>
  <varray name="primitive_index" >
   <v type="int" >        1 </v>
   <v type="int" >        2 </v>
   <v type="int" >        3 </v>
   <v type="int" >        4 </v>
   <v type="int" >        5 </v>
   <v type="int" >        6 </v>
   <v type="int" >        7 </v>
   <v type="int" >        8 </v>
   <v type="int" >        9 </v>
   <v type="int" >       10 </v>
   <v type="int" >       11 </v>
   <v type="int" >       12 </v>
   <v type="int" >       13 </v>
   <v type="int" >       14 </v>
   <v type="int" >       15 </v>
   <v type="int" >       16 </v>
   <v type="int" >       17 </v>
   <v type="int" >       18 </v>
   <v type="int" >       19 </v>
   <v type="int" >       20 </v>
   <v type="int" >       21 </v>
   <v type="int" >       22 </v>
   <v type="int" >       23 </v>
   <v type="int" >       24 </v>
   <v type="int" >       25 </v>
   <v type="int" >       26 </v>
   <v type="int" >       27 </v>
   <v type="int" >       28 </v>
   <v type="int" >       29 </v>
   <v type="int" >       30 </v>
   <v type="int" >       31 </v>
   <v type="int" >       32 </v>
   <v type="int" >       33 </v>
   <v type="int" >       34 </v>
   <v type="int" >       35 </v>
   <v type="int" >       36 </v>
   <v type="int" >       37 </v>
   <v type="int" >       38 </v>
   <v type="int" >       39 </v>
   <v type="int" >       40 </v>
   <v type="int" >       41 </v>
   <v type="int" >       42 </v>
   <v type="int" >       43 </v>
   <v type="int" >       44 </v>
   <v type="int" >       45 </v>
   <v type="int" >       46 </v>
   <v type="int" >       47 </v>
   <v type="int" >       48 </v>
   <v type="int" >       49 </v>
   <v type="int" >       50 </v>
   <v type="int" >       51 </v>
   <v type="int" >       52 </v>
   <v type="int" >       53 </v>
   <v type="int" >       54 </v>
   <v type="int" >       55 </v>
   <v type="int" >       56 </v>
   <v type="int" >       57 </v>
   <v type="int" >       58 </v>
   <v type="int" >       59 </v>
   <v type="int" >       60 </v>
   <v type="int" >       61 </v>
   <v type="int" >       62 </v>
   <v type="int" >       63 </v>
   <v type="int" >       64 </v>
  </varray>
 </primitive_cell>
 <kpoints>
  <generation param="Gamma">
   <v type="int" name="divisions">       3        3        3 </v>
   <v name="usershift">      0.00000000       0.00000000       0.00000000 </v>
   <v name="genvec1">      0.33333333       0.00000000       0.00000000 </v>
   <v name="genvec2">      0.00000000       0.33333333       0.00000000 </v>
   <v name="genvec3">      0.00000000       0.00000000       0.33333333 </v>
   <v name="shift">      0.00000000       0.00000000       0.00000000 </v>
  </generation>
  <varray name="kpointlist" >
   <v>       0.00000000       0.00000000       0.00000000 </v>
   <v>       0.33333333       0.00000000       0.00000000 </v>
   <v>       0.00000000       0.33333333       0.00000000 </v>
   <v>       0.33333333       0.33333333       0.00000000 </v>
   <v>       0.00000000       0.33333333       0.33333333 </v>
   <v>       0.00000000      -0.33333333       0.33333333 </v>
   <v>       0.33333333       0.33333333       0.33333333 </v>
   <v>      -0.33333333      -0.33333333       0.33333333 </v>
  </varray>
  <varray name="weights" >
   <v>       0.03703704 </v>
   <v>       0.07407407 </v>
   <v>       0.14814815 </v>
   <v>       0.29629630 </v>
   <v>       0.07407407 </v>
   <v>       0.07407407 </v>
   <v>       0.14814815 </v>
   <v>       0.14814815 </v>
  </varray>
 </kpoints>
 <parameters>
  <separator name="general" >
   <i type="string" name="SYSTEM">unknown system</i>
   <i type="logical" name="LCOMPAT"> F  </i>
  </separator>
  <separator name="electronic" >
   <i type="string" name="PREC">normal</i>
   <i name="ENMAX">    360.00000000</i>
   <i name="ENAUG">    456.10600000</i>
   <i name="EDIFF">      0.00010000</i>
   <i type="int" name="IALGO">    38</i>
   <i type="int" name="IWAVPR">    10</i>
   <i type="int" name="NBANDS">   384</i>
   <i type="int" name="NBANDSLOW">    -1</i>
   <i type="int" name="NBANDSHIGH">    -1</i>
   <i name="NELECT">    576.00000000</i>
   <i type="int" name="TURBO">     0</i>
   <i type="int" name="IRESTART">     0</i>
   <i type="int" name="NREBOOT">     0</i>
   <i type="int" name="NMIN">     0</i>
   <i name="EREF">      0.00000000</i>
   <separator name="electronic smearing" >
    <i type="int" name="ISMEAR">     0</i>
    <i name="SIGMA">      0.05000000</i>
    <i name="KSPACING">      0.50000000</i>
    <i type="logical" name="KGAMMA"> T  </i>
    <i type="logical" name="KBLOWUP"> T  </i>
   </separator>
   <separator name="electronic projectors" >
    <i type="logical" name="LREAL"> F  </i>
    <v name="ROPT">      0.00000000      0.00000000</v>
    <i type="int" name="LMAXPAW">  -100</i>
    <i type="int" name="LMAXMIX">     2</i>
    <i type="logical" name="NLSPLINE"> F  </i>
   </separator>
   <separator name="electronic startup" >
    <i type="int" name="ISTART">     0</i>
    <i type="int" name="ICHARG">     2</i>
    <i type="int" name="INIWAV">     1</i>
   </separator>
   <separator name="electronic spin" >
    <i type="int" name="ISPIN">     1</i>
    <i type="logical" name="LNONCOLLINEAR"> F  </i>
    <v name="MAGMOM">      1.00000000      1.00000000      1.00000000      1.00000000      1.00000000      1.00000000      1.00000000      1.00000000      1.00000000      1.00000000      1.00000000      1.00000000      1.00000000      1.00000000      1.00000000      1.00000000      1.00000000      1.00000000      1.00000000      1.00000000
      1.00000000      1.00000000      1.00000000      1.00000000      1.00000000      1.00000000      1.00000000      1.00000000      1.00000000      1.00000000      1.00000000      1.00000000      1.00000000      1.00000000      1.00000000      1.00000000      1.00000000      1.00000000      1.00000000      1.00000000
      1.00000000      1.00000000      1.00000000      1.00000000      1.00000000      1.00000000      1.00000000      1.00000000      1.00000000      1.00000000      1.00000000      1.00000000      1.00000000      1.00000000      1.00000000      1.00000000      1.00000000      1.00000000      1.00000000      1.00000000
      1.00000000      1.00000000      1.00000000      1.00000000</v>
    <i name="NUPDOWN">     -1.00000000</i>
    <i type="logical" name="LSORBIT"> F  </i>
    <v name="SAXIS">      0.00000000      0.00000000      1.00000000</v>
    <i type="logical" name="LSPIRAL"> F  </i>
    <v name="QSPIRAL">      0.00000000      0.00000000      0.00000000</v>
    <i type="logical" name="LZEROZ"> F  </i>
   </separator>
   <separator name="electronic exchange-correlation" >
    <i type="logical" name="LASPH"> F  </i>
    <i type="logical" name="LMETAGGA"> F  </i>
   </separator>
   <separator name="electronic convergence" >
    <i type="int" name="NELM">    60</i>
    <i type="int" name="NELMDL">    -5</i>
    <i type="int" name="NELMIN">     2</i>
    <i name="ENINI">    360.00000000</i>
    <separator name="electronic convergence detail" >
     <i type="logical" name="LDIAG"> T  </i>
     <i type="logical" name="LSUBROT"> F  </i>
     <i name="WEIMIN">      0.00000000</i>
     <i name="EBREAK">      0.00000007</i>
     <i name="DEPER">      0.30000000</i>
     <i type="int" name="NRMM">     4</i>
     <i name="TIME">      0.40000000</i>
    </separator>
   </separator>
   <separator name="electronic mixer" >
    <i name="AMIX">      0.40000000</i>
    <i name="BMIX">      1.00000000</i>
    <i name="AMIN">      0.10000000</i>
    <i name="AMIX_MAG">      1.60000000</i>
    <i name="BMIX_MAG">      1.00000000</i>
    <separator name="electronic mixer details" >
     <i type="int" name="IMIX">     4</i>
     <i type="logical" name="MIXFIRST"> F  </i>
     <i type="int" name="MAXMIX">   -45</i>
     <i name="WC">    100.00000000</i>
     <i type="int" name="INIMIX">     1</i>
     <i type="int" name="MIXPRE">     1</i>
     <i type="int" name="MREMOVE">     5</i>
    </separator>
   </separator>
   <separator name="electronic dipolcorrection" >
    <i type="logical" name="LDIPOL"> F  </i>
    <i type="logical" name="LMONO"> F  </i>
    <i type="int" name="IDIPOL">     0</i>
    <i name="EPSILON">      1.00000000</i>
    <v name="DIPOL">   -100.00000000   -100.00000000   -100.00000000</v>
    <i name="EFIELD">      0.00000000</i>
   </separator>
  </separator>
  <separator name="grids" >
   <i type="int" name="NGX">    64</i>
   <i type="int" name="NGY">    64</i>
   <i type="int" name="NGZ">    64</i>
   <i type="int" name="NGXF">   128</i>
   <i type="int" name="NGYF">   128</i>
   <i type="int" name="NGZF">   128</i>
   <i type="logical" name="ADDGRID"> F  </i>
  </separator>
  <separator name="ionic" >
   <i type="int" name="NSW">     0</i>
   <i type="int" name="IBRION">    -1</i>
   <i type="int" name="MDALGO">     0</i>
   <i type="int" name="ISIF">     2</i>
   <i name="PSTRESS">      0.00000000</i>
   <i name="EDIFFG">      0.00100000</i>
   <i type="int" name="NFREE">     0</i>
   <i name="POTIM">      0.50000000</i>
   <i name="SMASS">     -3.00000000</i>
   <i name="SCALEE">      1.00000000</i>
  </separator>
  <separator name="ionic md" >
   <i name="TEBEG">      0.00010000</i>
   <i name="TEEND">      0.00010000</i>
   <i type="int" name="NBLOCK">     1</i>
   <i type="int" name="KBLOCK">     1</i>
   <i type="int" name="NPACO">   256</i>
   <i name="APACO">     10.00000000</i>
  </separator>
  <separator name="symmetry" >
   <i type="int" name="ISYM">     2</i>
   <i name="SYMPREC">      0.00001000</i>
  </separator>
  <separator name="dos" >
   <i type="int" name="LORBIT">     0</i>
   <v name="RWIGS">     -1.00000000     -1.00000000</v>
   <i type="int" name="NEDOS">   301</i>
   <i name="EMIN">     10.00000000</i>
   <i name="EMAX">    -10.00000000</i>
   <i name="EFERMI">      0.00000000</i>
  </separator>
  <separator name="writing" >
   <i type="int" name="NWRITE">     2</i>
   <i type="logical" name="LWAVE"> T  </i>
   <i type="logical" name="LDOWNSAMPLE"> F  </i>
   <i type="logical" name="LCHARG"> T  </i>
   <i type="logical" name="LPARD"> F  </i>
   <i type="logical" name="LVTOT"> F  </i>
   <i type="logical" name="LVHAR"> F  </i>
   <i type="logical" name="LELF"> F  </i>
   <i type="logical" name="LOPTICS"> F  </i>
   <v name="STM">      0.00000000      0.00000000      0.00000000      0.00000000      0.00000000      0.00000000      0.00000000</v>
  </separator>
  <separator name="performance" >
   <i type="int" name="NPAR">    48</i>
   <i type="int" name="NSIM">     4</i>
   <i type="int" name="NBLK">    -1</i>
   <i type="logical" name="LPLANE"> T  </i>
   <i type="logical" name="LSCALAPACK"> T  </i>
   <i type="logical" name="LSCAAWARE"> F  </i>
   <i type="logical" name="LSCALU"> F  </i>
   <i type="logical" name="LASYNC"> F  </i>
   <i type="logical" name="LORBITALREAL"> F  </i>
  </separator>
  <separator name="miscellaneous" >
   <i type="int" name="IDIOT">     3</i>
   <i type="int" name="PHON_NSTRUCT">    -1</i>
   <i type="logical" name="LMUSIC"> F  </i>
   <v name="POMASS">    112.41100000    127.60000000</v>
   <v name="DARWINR">      0.00000000      0.00000000</v>
   <v name="DARWINV">      1.00000000      1.00000000</v>
   <i type="logical" name="LCORR"> T  </i>
  </separator>
  <i type="logical" name="GGA_COMPAT"> T  </i>
  <i type="logical" name="LBERRY"> F  </i>
  <i type="int" name="ICORELEVEL">     0</i>
  <i type="logical" name="LDAU"> F  </i>
  <i type="int" name="I_CONSTRAINED_M">     0</i>
  <separator name="electronic exchange-correlation" >
   <i type="string" name="GGA">--</i>
   <i type="int" name="VOSKOWN">     0</i>
   <i type="logical" name="LHFCALC"> F  </i>
   <i type="string" name="PRECFOCK"></i>
   <i type="logical" name="LSYMGRAD"> F  </i>
   <i type="logical" name="LHFONE"> F  </i>
   <i type="logical" name="LRHFCALC"> F  </i>
   <i type="logical" name="LTHOMAS"> F  </i>
   <i type="logical" name="LMODELHF"> F  </i>
   <i type="logical" name="LFOCKACE"> F  </i>
   <i name="ENCUT4O">     -1.00000000</i>
   <i type="int" name="EXXOEP">     0</i>
   <i type="int" name="FOURORBIT">     0</i>
   <i name="AEXX">      0.00000000</i>
   <i name="HFALPHA">      0.00000000</i>
   <i name="MCALPHA">      0.00000000</i>
   <i name="ALDAX">      1.00000000</i>
   <i name="AGGAX">      1.00000000</i>
   <i name="ALDAC">      1.00000000</i>
   <i name="AGGAC">      1.00000000</i>
   <i type="int" name="NKREDX">     1</i>
   <i type="int" name="NKREDY">     1</i>
   <i type="int" name="NKREDZ">     1</i>
   <i type="logical" name="SHIFTRED"> F  </i>
   <i type="logical" name="ODDONLY"> F  </i>
   <i type="logical" name="EVENONLY"> F  </i>
   <i type="int" name="LMAXFOCK">     0</i>
   <i type="int" name="NMAXFOCKAE">     0</i>
   <i type="logical" name="LFOCKAEDFT"> F  </i>
   <i name="HFSCREEN">      0.00000000</i>
   <i name="HFSCREENC">      0.00000000</i>
   <i type="int" name="NBANDSGWLOW">     0</i>
  </separator>
  <separator name="vdW DFT" >
   <i type="logical" name="LUSE_VDW"> F  </i>
   <i name="Zab_VDW">     -0.84910000</i>
   <i name="PARAM1">      0.12340000</i>
   <i name="PARAM2">      1.00000000</i>
   <i name="PARAM3">      0.00000000</i>
  </separator>
  <separator name="model GW" >
   <i type="int" name="MODEL_GW">     0</i>
   <i name="MODEL_EPS0">     22.51037310</i>
   <i name="MODEL_ALPHA">      1.00000000</i>
  </separator>
  <separator name="linear response parameters" >
   <i type="logical" name="LEPSILON"> F  </i>
   <i type="logical" name="LRPA"> F  </i>
   <i type="logical" name="LNABLA"> F  </i>
   <i type="logical" name="LVEL"> F  </i>
   <i name="CSHIFT">      0.10000000</i>
   <i name="OMEGAMAX">     -1.00000000</i>
   <i name="DEG_THRESHOLD">      0.00200000</i>
   <i name="RTIME">     -0.10000000</i>
   <i name="WPLASMAI">      0.00000000</i>
   <v name="DFIELD">      0.00000000      0.00000000      0.00000000</v>
   <v name="WPLASMA">      0.00000000      0.00000000      0.00000000      0.00000000      0.00000000      0.00000000      0.00000000      0.00000000      0.00000000</v>
  </separator>
  <separator name="orbital magnetization" >
   <i type="logical" name="NUCIND"> F  </i>
   <v name="MAGPOS">      0.00000000      0.00000000      0.00000000</v>
   <i type="logical" name="LNICSALL"> T  </i>
   <i type="logical" name="ORBITALMAG"> F  </i>
   <i type="logical" name="LMAGBLOCH"> F  </i>
   <i type="logical" name="LCHIMAG"> F  </i>
   <i type="logical" name="LGAUGE"> T  </i>
   <i type="int" name="MAGATOM">     0</i>
   <v name="MAGDIPOL">      0.00000000      0.00000000      0.00000000</v>
   <v name="AVECCONST">      0.00000000      0.00000000      0.00000000</v>
  </separator>
  <separator name="response functions" >
   <i type="logical" name="LFINITE_TEMPERATURE"> F  </i>
   <i type="logical" name="LADDER"> F  </i>
   <i type="logical" name="LRPAFORCE"> F  </i>
   <i type="logical" name="LFXC"> F  </i>
   <i type="logical" name="LHARTREE"> T  </i>
   <i type="int" name="IBSE">     0</i>
   <v type="int" name="KPOINT">    -1     0     0     0</v>
   <i type="logical" name="LTCTC"> F  </i>
   <i type="logical" name="LTCTE"> F  </i>
   <i type="logical" name="LTETE"> F  </i>
   <i type="logical" name="LTRIPLET"> F  </i>
   <i type="logical" name="LFXCEPS"> F  </i>
   <i type="logical" name="LFXHEG"> F  </i>
   <i type="int" name="NATURALO">     2</i>
   <i type="logical" name="LHOLEGF"> F  </i>
   <i type="logical" name="L2ORDER"> F  </i>
   <i type="logical" name="LDMP1"> F  </i>
   <i type="logical" name="LMP2LT"> F  </i>
   <i type="logical" name="LSMP2LT"> F  </i>
   <i type="logical" name="LGWLF"> F  </i>
   <i name="ENCUTGW">     -2.00000000</i>
   <i name="ENCUTGWSOFT">     -2.00000000</i>
   <i name="ENCUTLF">     -1.00000000</i>
   <i type="logical" name="LESF_SPLINES"> F  </i>
   <i type="int" name="LMAXMP2">    -1</i>
   <i name="SCISSOR">      0.00000000</i>
   <i type="int" name="NOMEGA">     0</i>
   <i type="int" name="NOMEGAR">     0</i>
   <i type="int" name="NBANDSGW">    -1</i>
   <i type="int" name="NBANDSO">    -1</i>
   <i type="int" name="NBANDSV">    -1</i>
   <i type="int" name="NELMGW">     1</i>
   <i type="int" name="NELMHF">     1</i>
   <i type="int" name="DIM">     3</i>
   <i type="int" name="IESPILON">     4</i>
   <i type="int" name="ANTIRES">     0</i>
   <i name="OMEGAMAX">    -30.00000000</i>
   <i name="OMEGAMIN">    -30.00000000</i>
   <i name="OMEGATL">   -200.00000000</i>
   <i type="int" name="OMEGAGRID">     0</i>
   <i name="CSHIFT">     -0.10000000</i>
   <i type="logical" name="LSELFENERGY"> F  </i>
   <i type="logical" name="LSPECTRAL"> F  </i>
   <i type="logical" name="LSPECTRALGW"> F  </i>
   <i type="logical" name="LSINGLES"> F  </i>
   <i type="logical" name="LFERMIGW"> F  </i>
   <i type="logical" name="ODDONLYGW"> F  </i>
   <i type="logical" name="EVENONLYGW"> F  </i>
   <i type="int" name="NKREDLFX">     1</i>
   <i type="int" name="NKREDLFY">     1</i>
   <i type="int" name="NKREDLFZ">     1</i>
   <i type="int" name="MAXMEM">  2800</i>
   <i type="int" name="TELESCOPE">     0</i>
   <i type="int" name="NTAUPAR">    -1</i>
   <i type="int" name="NOMEGAPAR">    -1</i>
   <i name="DAMP_NEWTON">      0.80000001</i>
   <i name="LAMBDA">      1.00000000</i>
  </separator>
  <separator name="External order field" >
   <i name="OFIELD_KAPPA">      0.00000000</i>
   <v name="OFIELD_K">      0.00000000      0.00000000      0.00000000</v>
   <i name="OFIELD_Q6_NEAR">      0.00000000</i>
   <i name="OFIELD_Q6_FAR">      0.00000000</i>
   <i name="OFIELD_A">      0.00000000</i>
  </separator>
  <separator name="optional k-points parameters" >
   <i type="int" name="KPOINTS_OPT_MODE">     1</i>
   <i type="logical" name="LKPOINTS_OPT"> F  </i>
  </separator>
 </parameters>
 <atominfo>
  <atoms>      64 </atoms>
  <types>       2 </types>
  <array name="atoms" >
   <dimension dim="1">ion</dimension>
   <field type="string">element</field>
   <field type="int">atomtype</field>
   <set>
    <rc><c>Cd</c><c>   1</c></rc>
    <rc><c>Cd</c><c>   1</c></rc>
    <rc><c>Cd</c><c>   1</c></rc>
    <rc><c>Cd</c><c>   1</c></rc>
    <rc><c>Cd</c><c>   1</c></rc>
    <rc><c>Cd</c><c>   1</c></rc>
    <rc><c>Cd</c><c>   1</c></rc>
    <rc><c>Cd</c><c>   1</c></rc>
    <rc><c>Cd</c><c>   1</c></rc>
    <rc><c>Cd</c><c>   1</c></rc>
    <rc><c>Cd</c><c>   1</c></rc>
    <rc><c>Cd</c><c>   1</c></rc>
    <rc><c>Cd</c><c>   1</c></rc>
    <rc><c>Cd</c><c>   1</c></rc>
    <rc><c>Cd</c><c>   1</c></rc>
    <rc><c>Cd</c><c>   1</c></rc>
    <rc><c>Cd</c><c>   1</c></rc>
    <rc><c>Cd</c><c>   1</c></rc>
    <rc><c>Cd</c><c>   1</c></rc>
    <rc><c>Cd</c><c>   1</c></rc>
    <rc><c>Cd</c><c>   1</c></rc>
    <rc><c>Cd</c><c>   1</c></rc>
    <rc><c>Cd</c><c>   1</c></rc>
    <rc><c>Cd</c><c>   1</c></rc>
    <rc><c>Cd</c><c>   1</c></rc>
    <rc><c>Cd</c><c>   1</c></rc>
    <rc><c>Cd</c><c>   1</c></rc>
    <rc><c>Cd</c><c>   1</c></rc>
    <rc><c>Cd</c><c>   1</c></rc>
    <rc><c>Cd</c><c>   1</c></rc>
    <rc><c>Cd</c><c>   1</c></rc>
    <rc><c>Cd</c><c>   1</c></rc>
    <rc><c>Te</c><c>   2</c></rc>
    <rc><c>Te</c><c>   2</c></rc>
    <rc><c>Te</c><c>   2</c></rc>
    <rc><c>Te</c><c>   2</c></rc>
    <rc><c>Te</c><c>   2</c></rc>
    <rc><c>Te</c><c>   2</c></rc>
    <rc><c>Te</c><c>   2</c></rc>
    <rc><c>Te</c><c>   2</c></rc>
    <rc><c>Te</c><c>   2</c></rc>
    <rc><c>Te</c><c>   2</c></rc>
    <rc><c>Te</c><c>   2</c></rc>
    <rc><c>Te</c><c>   2</c></rc>
    <rc><c>Te</c><c>   2</c></rc>
    <rc><c>Te</c><c>   2</c></rc>
    <rc><c>Te</c><c>   2</c></rc>
    <rc><c>Te</c><c>   2</c></rc>
    <rc><c>Te</c><c>   2</c></rc>
    <rc><c>Te</c><c>   2</c></rc>
    <rc><c>Te</c><c>   2</c></rc>
    <rc><c>Te</c><c>   2</c></rc>
    <rc><c>Te</c><c>   2</c></rc>
    <rc><c>Te</c><c>   2</c></rc>
    <rc><c>Te</c><c>   2</c></rc>
    <rc><c>Te</c><c>   2</c></rc>
    <rc><c>Te</c><c>   2</c></rc>
    <rc><c>Te</c><c>   2</c></rc>
    <rc><c>Te</c><c>   2</c></rc>
    <rc><c>Te</c><c>   2</c></rc>
    <rc><c>Te</c><c>   2</c></rc>
    <rc><c>Te</c><c>   2</c></rc>
    <rc><c>Te</c><c>   2</c></rc>
    <rc><c>Te</c><c>   2</c></rc>
   </set>
  </array>
  <array name="atomtypes" >
   <dimension dim="1">type</dimension>
   <field type="int">atomspertype</field>
   <field type="string">element</field>
   <field>mass</field>
   <field>valence</field>
   <field type="string">pseudopotential</field>
   <set>
    <rc><c>  32</c><c>Cd</c><c>    112.41100000</c><c>     12.00000000</c><c>  PAW_PBE Cd 06Sep2000                  </c></rc>
    <rc><c>  32</c><c>Te</c><c>    127.60000000</c><c>      6.00000000</c><c>  PAW_PBE Te 08Apr2002                  </c></rc>
   </set>
  </array>
 </atominfo>
 <structure name="initialpos" >
  <crystal>
   <varray name="basis" >
    <v>      13.39071620       0.00000000       0.00000000 </v>
    <v>       0.00000000      13.39071620       0.00000000 </v>
    <v>       0.00000000       0.00000000      13.39071620 </v>
   </varray>
   <i name="volume">   2401.10646453 </i>
   <varray name="rec_basis" >
    <v>       0.07467860       0.00000000       0.00000000 </v>
    <v>       0.00000000       0.07467860       0.00000000 </v>
    <v>       0.00000000       0.00000000       0.07467860 </v>
   </varray>
  </crystal>
  <varray name="positions" >
   <v>       0.00074679       0.00000000       0.00000000 </v>
   <v>       0.50000000       0.00000000       0.00000000 </v>
   <v>       0.00000000       0.50000000       0.00000000 </v>
   <v>       0.50000000       0.50000000       0.00000000 </v>
   <v>       0.00000000       0.00000000       0.50000000 </v>
   <v>       0.50000000       0.00000000       0.50000000 </v>
   <v>       0.00000000       0.50000000       0.50000000 </v>
   <v>       0.50000000       0.50000000       0.50000000 </v>
   <v>       0.00000000       0.25000000       0.25000000 </v>
   <v>       0.50000000       0.25000000       0.25000000 </v>
   <v>       0.00000000       0.75000000       0.25000000 </v>
   <v>       0.50000000       0.75000000       0.25000000 </v>
   <v>       0.00000000       0.25000000       0.75000000 </v>
   <v>       0.50000000       0.25000000       0.75000000 </v>
   <v>       0.00000000       0.75000000       0.75000000 </v>
   <v>       0.50000000       0.75000000       0.75000000 </v>
   <v>       0.25000000       0.00000000       0.25000000 </v>
   <v>       0.75000000       0.00000000       0.25000000 </v>
   <v>       0.25000000       0.50000000       0.25000000 </v>
   <v>       0.75000000       0.50000000       0.25000000 </v>
   <v>       0.25000000       0.00000000       0.75000000 </v>
   <v>       0.75000000       0.00000000       0.75000000 </v>
   <v>       0.25000000       0.50000000       0.75000000 </v>
   <v>       0.75000000       0.50000000       0.75000000 </v>
   <v>       0.25000000       0.25000000       0.00000000 </v>
   <v>       0.75000000       0.25000000       0.00000000 </v>
   <v>       0.25000000       0.75000000       0.00000000 </v>
   <v>       0.75000000       0.75000000       0.00000000 </v>
   <v>       0.25000000       0.25000000       0.50000000 </v>
   <v>       0.75000000       0.25000000       0.50000000 </v>
   <v>       0.25000000       0.75000000       0.50000000 </v>
   <v>       0.75000000       0.75000000       0.50000000 </v>
   <v>       0.12500000       0.12500000       0.12500000 </v>
   <v>       0.62500000       0.12500000       0.12500000 </v>
   <v>       0.12500000       0.62500000       0.12500000 </v>
   <v>       0.62500000       0.62500000       0.12500000 </v>
   <v>       0.12500000       0.12500000       0.62500000 </v>
   <v>       0.62500000       0.12500000       0.62500000 </v>
   <v>       0.12500000       0.62500000       0.62500000 </v>
   <v>       0.62500000       0.62500000       0.62500000 </v>
   <v>       0.12500000       0.37500000       0.37500000 </v>
   <v>       0.62500000       0.37500000       0.37500000 </v>
   <v>       0.12500000       0.87500000       0.37500000 </v>
   <v>       0.62500000       0.87500000       0.37500000 </v>
   <v>       0.12500000       0.37500000       0.87500000 </v>
   <v>       0.62500000       0.37500000       0.87500000 </v>
   <v>       0.12500000       0.87500000       0.87500000 </v>
   <v>       0.62500000       0.87500000       0.87500000 </v>
   <v>       0.37500000       0.12500000       0.37500000 </v>
   <v>       0.87500000       0.12500000       0.37500000 </v>
   <v>       0.37500000       0.62500000       0.37500000 </v>
   <v>       0.87500000       0.62500000       0.37500000 </v>
   <v>       0.37500000       0.12500000       0.87500000 </v>
   <v>       0.87500000       0.12500000       0.87500000 </v>
   <v>       0.37500000       0.62500000       0.87500000 </v>
   <v>       0.87500000       0.62500000       0.87500000 </v>
   <v>       0.37500000       0.37500000       0.12500000 </v>
   <v>       0.87500000       0.37500000       0.12500000 </v>
   <v>       0.37500000       0.87500000       0.12500000 </v>
   <v>       0.87500000       0.87500000       0.12500000 </v>
   <v>       0.37500000       0.37500000       0.62500000 </v>
   <v>       0.87500000       0.37500000       0.62500000 </v>
   <v>       0.37500000       0.87500000       0.62500000 </v>
   <v>       0.87500000       0.87500000       0.62500000 </v>
  </varray>
 </structure>
 <calculation>
  <scstep>
   <time name="dav">   34.64   34.86</time>
   <time name="total">   34.67   34.90</time>
   <energy>
    <i name="alphaZ">   1457.33582743 </i>
    <i name="ewald"> -32372.65033072 </i>
    <i name="hartreedc"> -16917.64140718 </i>
    <i name="XCdc">   -735.17319656 </i>
    <i name="pawpsdc">  44941.76741987 </i>
    <i name="pawaedc"> -42629.27134123 </i>
    <i name="eentropy">     -0.03246096 </i>
    <i name="bandstr">    726.34410732 </i>
    <i name="atom">  48525.04422734 </i>
    <i name="e_fr_energy">   2995.72284531 </i>
    <i name="e_wo_entrp">   2995.75530627 </i>
    <i name="e_0_energy">   2995.73907579 </i>
   </energy>
  </scstep>
  <scstep>
   <time name="dav">   38.48   38.75</time>
   <time name="total">   38.48   38.75</time>
   <energy>
    <i name="e_fr_energy">      8.84226345 </i>
    <i name="e_wo_entrp">      8.84226345 </i>
    <i name="e_0_energy">      8.84226345 </i>
   </energy>
  </scstep>
  <scstep>
   <time name="dav">   39.98   40.26</time>
   <time name="total">   39.98   40.26</time>
   <energy>
    <i name="e_fr_energy">   -158.62763745 </i>
    <i name="e_wo_entrp">   -158.62763745 </i>
    <i name="e_0_energy">   -158.62763745 </i>
   </energy>
  </scstep>
  <scstep>
   <time name="dav">   40.26   40.54</time>
   <time name="total">   40.26   40.54</time>
   <energy>
    <i name="e_fr_energy">   -161.33582979 </i>
    <i name="e_wo_entrp">   -161.33582979 </i>
    <i name="e_0_energy">   -161.33582979 </i>
   </energy>
  </scstep>
  <scstep>
   <time name="dav">   38.46   38.76</time>
   <time name="total">   38.71   39.01</time>
   <energy>
    <i name="e_fr_energy">   -161.37300898 </i>
    <i name="e_wo_entrp">   -161.37300898 </i>
    <i name="e_0_energy">   -161.37300898 </i>
   </energy>
  </scstep>
  <scstep>
   <time name="dav">   37.11   37.35</time>
   <time name="total">   37.39   37.65</time>
   <energy>
    <i name="e_fr_energy">   -154.05538971 </i>
    <i name="e_wo_entrp">   -154.05538971 </i>
    <i name="e_0_energy">   -154.05538971 </i>
   </energy>
  </scstep>
  <scstep>
   <time name="dav">   37.63   37.86</time>
   <time name="total">   37.90   38.17</time>
   <energy>
    <i name="e_fr_energy">   -153.64421556 </i>
    <i name="e_wo_entrp">   -153.64421556 </i>
    <i name="e_0_energy">   -153.64421556 </i>
   </energy>
  </scstep>
  <scstep>
   <time name="dav">   37.81   38.06</time>
   <time name="total">   38.09   38.36</time>
   <energy>
    <i name="e_fr_energy">   -153.64861909 </i>
    <i name="e_wo_entrp">   -153.64861909 </i>
    <i name="e_0_energy">   -153.64861909 </i>
   </energy>
  </scstep>
  <scstep>
   <time name="dav">   38.04   38.29</time>
   <time name="total">   38.32   38.60</time>
   <energy>
    <i name="e_fr_energy">   -153.65643768 </i>
    <i name="e_wo_entrp">   -153.65643768 </i>
    <i name="e_0_energy">   -153.65643768 </i>
   </energy>
  </scstep>
  <scstep>
   <time name="dav">   38.00   38.24</time>
   <time name="total">   38.27   38.55</time>
   <energy>
    <i name="e_fr_energy">   -153.65413175 </i>
    <i name="e_wo_entrp">   -153.65413175 </i>
    <i name="e_0_energy">   -153.65413175 </i>
   </energy>
  </scstep>
  <scstep>
   <time name="dav">   38.02   38.27</time>
   <time name="total">   38.31   38.58</time>
   <energy>
    <i name="e_fr_energy">   -153.65510828 </i>
    <i name="e_wo_entrp">   -153.65510828 </i>
    <i name="e_0_energy">   -153.65510828 </i>
   </energy>
  </scstep>
  <scstep>
   <time name="dav">   35.91   36.14</time>
   <time name="total">   36.19   36.44</time>
   <energy>
    <i name="e_fr_energy">   -153.65521374 </i>
    <i name="e_wo_entrp">   -153.65521374 </i>
    <i name="e_0_energy">   -153.65521374 </i>
   </energy>
  </scstep>
  <scstep>
   <time name="dav">   31.25   31.45</time>
   <time name="total">   31.52   31.76</time>
   <energy>
    <i name="e_fr_energy">   -153.65532830 </i>
    <i name="e_wo_entrp">   -153.65532830 </i>
    <i name="e_0_energy">   -153.65532830 </i>
   </energy>
  </scstep>
  <scstep>
   <time name="dav">   28.73   28.93</time>
   <time name="total">   28.76   29.01</time>
   <energy>
    <i name="alphaZ">   1457.33582743 </i>
    <i name="ewald"> -32372.65033072 </i>
    <i name="hartreedc"> -16712.17991311 </i>
    <i name="XCdc">   -732.98788857 </i>
    <i name="pawpsdc">  53365.61492203 </i>
    <i name="pawaedc"> -51030.14367942 </i>
    <i name="eentropy">     -0.00000000 </i>
    <i name="bandstr">  -2653.68850943 </i>
    <i name="atom">  48525.04422734 </i>
    <i name="e_fr_energy">   -153.65534443 </i>
    <i name="e_wo_entrp">   -153.65534443 </i>
    <i name="e_0_energy">   -153.65534443 </i>
   </energy>
  </scstep>
  <structure>
   <crystal>
    <varray name="basis" >
     <v>      13.39071620       0.00000000       0.00000000 </v>
     <v>       0.00000000      13.39071620       0.00000000 </v>
     <v>       0.00000000       0.00000000      13.39071620 </v>
    </varray>
    <i name="volume">   2401.10646453 </i>
    <varray name="rec_basis" >
     <v>       0.07467860       0.00000000       0.00000000 </v>
     <v>       0.00000000       0.07467860       0.00000000 </v>
     <v>       0.00000000       0.00000000       0.07467860 </v>
    </varray>
   </crystal>
   <varray name="positions" >
    <v>       0.00074679       0.00000000       0.00000000 </v>
    <v>       0.50000000       0.00000000       0.00000000 </v>
    <v>       0.00000000       0.50000000       0.00000000 </v>
    <v>       0.50000000       0.50000000       0.00000000 </v>
    <v>       0.00000000       0.00000000       0.50000000 </v>
    <v>       0.50000000       0.00000000       0.50000000 </v>
    <v>       0.00000000       0.50000000       0.50000000 </v>
    <v>       0.50000000       0.50000000       0.50000000 </v>
    <v>       0.00000000       0.25000000       0.25000000 </v>
    <v>       0.50000000       0.25000000       0.25000000 </v>
    <v>       0.00000000       0.75000000       0.25000000 </v>
    <v>       0.50000000       0.75000000       0.25000000 </v>
    <v>       0.00000000       0.25000000       0.75000000 </v>
    <v>       0.50000000       0.25000000       0.75000000 </v>
    <v>       0.00000000       0.75000000       0.75000000 </v>
    <v>       0.50000000       0.75000000       0.75000000 </v>
    <v>       0.25000000       0.00000000       0.25000000 </v>
    <v>       0.75000000       0.00000000       0.25000000 </v>
    <v>       0.25000000       0.50000000       0.25000000 </v>
    <v>       0.75000000       0.50000000       0.25000000 </v>
    <v>       0.25000000       0.00000000       0.75000000 </v>
    <v>       0.75000000       0.00000000       0.75000000 </v>
    <v>       0.25000000       0.50000000       0.75000000 </v>
    <v>       0.75000000       0.50000000       0.75000000 </v>
    <v>       0.25000000       0.25000000       0.00000000 </v>
    <v>       0.75000000       0.25000000       0.00000000 </v>
    <v>       0.25000000       0.75000000       0.00000000 </v>
    <v>       0.75000000       0.75000000       0.00000000 </v>
    <v>       0.25000000       0.25000000       0.50000000 </v>
    <v>       0.75000000       0.25000000       0.50000000 </v>
    <v>       0.25000000       0.75000000       0.50000000 </v>
    <v>       0.75000000       0.75000000       0.50000000 </v>
    <v>       0.12500000       0.12500000       0.12500000 </v>
    <v>       0.62500000       0.12500000       0.12500000 </v>
    <v>       0.12500000       0.62500000       0.12500000 </v>
    <v>       0.62500000       0.62500000       0.12500000 </v>
    <v>       0.12500000       0.12500000       0.62500000 </v>
    <v>       0.62500000       0.12500000       0.62500000 </v>
    <v>       0.12500000       0.62500000       0.62500000 </v>
    <v>       0.62500000       0.62500000       0.62500000 </v>
    <v>       0.12500000       0.37500000       0.37500000 </v>
    <v>       0.62500000       0.37500000       0.37500000 </v>
    <v>       0.12500000       0.87500000       0.37500000 </v>
    <v>       0.62500000       0.87500000       0.37500000 </v>
    <v>       0.12500000       0.37500000       0.87500000 </v>
    <v>       0.62500000       0.37500000       0.87500000 </v>
    <v>       0.12500000       0.87500000       0.87500000 </v>
    <v>       0.62500000       0.87500000       0.87500000 </v>
    <v>       0.37500000       0.12500000       0.37500000 </v>
    <v>       0.87500000       0.12500000       0.37500000 </v>
    <v>       0.37500000       0.62500000       0.37500000 </v>
    <v>       0.87500000       0.62500000       0.37500000 </v>
    <v>       0.37500000       0.12500000       0.87500000 </v>
    <v>       0.87500000       0.12500000       0.87500000 </v>
    <v>       0.37500000       0.62500000       0.87500000 </v>
    <v>       0.87500000       0.62500000       0.87500000 </v>
    <v>       0.37500000       0.37500000       0.12500000 </v>
    <v>       0.87500000       0.37500000       0.12500000 </v>
    <v>       0.37500000       0.87500000       0.12500000 </v>
    <v>       0.87500000       0.87500000       0.12500000 </v>
    <v>       0.37500000       0.37500000       0.62500000 </v>
    <v>       0.87500000       0.37500000       0.62500000 </v>
    <v>       0.37500000       0.87500000       0.62500000 </v>
    <v>       0.87500000       0.87500000       0.62500000 </v>
   </varray>
  </structure>
  <varray name="forces" >
   <v>      -0.03819904       0.00000000       0.00000000 </v>
   <v>       0.00082642       0.00000000       0.00000000 </v>
   <v>      -0.00006682       0.00000000      -0.00000000 </v>
   <v>       0.00054376       0.00000000       0.00000000 </v>
   <v>      -0.00006682       0.00000000      -0.00000000 </v>
   <v>       0.00054376       0.00000000       0.00000000 </v>
   <v>      -0.00164545       0.00000000       0.00000000 </v>
   <v>       0.00028556       0.00000000      -0.00000000 </v>
   <v>      -0.00272695       0.00130985       0.00130985 </v>
   <v>       0.00050138      -0.00022701      -0.00022701 </v>
   <v>      -0.00272282       0.00130517      -0.00130517 </v>
   <v>       0.00050165      -0.00022760       0.00022760 </v>
   <v>      -0.00272282      -0.00130517       0.00130517 </v>
   <v>       0.00050165       0.00022760      -0.00022760 </v>
   <v>      -0.00272695      -0.00130985      -0.00130985 </v>
   <v>       0.00050138       0.00022701       0.00022701 </v>
   <v>       0.00135938      -0.00130677       0.00142443 </v>
   <v>       0.00135442      -0.00131238      -0.00142248 </v>
   <v>       0.00018806       0.00022852      -0.00023461 </v>
   <v>       0.00018662       0.00022921       0.00023623 </v>
   <v>       0.00135938       0.00130677      -0.00142443 </v>
   <v>       0.00135442       0.00131238       0.00142248 </v>
   <v>       0.00018806      -0.00022852       0.00023461 </v>
   <v>       0.00018662      -0.00022921      -0.00023623 </v>
   <v>       0.00135938       0.00142443      -0.00130677 </v>
   <v>       0.00135442      -0.00142248      -0.00131238 </v>
   <v>       0.00135938      -0.00142443       0.00130677 </v>
   <v>       0.00135442       0.00142248       0.00131238 </v>
   <v>       0.00018806      -0.00023461       0.00022852 </v>
   <v>       0.00018662       0.00023623       0.00022921 </v>
   <v>       0.00018806       0.00023461      -0.00022852 </v>
   <v>       0.00018662      -0.00023623      -0.00022921 </v>
   <v>       0.00930442       0.00743932       0.00743932 </v>
   <v>      -0.00057681       0.00028023       0.00028023 </v>
   <v>       0.00039534      -0.00000932      -0.00016959 </v>
   <v>      -0.00053407      -0.00040843      -0.00009034 </v>
   <v>       0.00039534      -0.00016959      -0.00000932 </v>
   <v>      -0.00053407      -0.00009034      -0.00040843 </v>
   <v>       0.00035762       0.00060922       0.00060922 </v>
   <v>      -0.00017012       0.00004832       0.00004832 </v>
   <v>       0.00035762      -0.00060922      -0.00060922 </v>
   <v>      -0.00017012      -0.00004832      -0.00004832 </v>
   <v>       0.00039534       0.00016959       0.00000932 </v>
   <v>      -0.00053407       0.00009034       0.00040843 </v>
   <v>       0.00039534       0.00000932       0.00016959 </v>
   <v>      -0.00053407       0.00040843       0.00009034 </v>
   <v>       0.00930442      -0.00743932      -0.00743932 </v>
   <v>      -0.00057681      -0.00028023      -0.00028023 </v>
   <v>      -0.00053238       0.00009049      -0.00040715 </v>
   <v>       0.00039762       0.00016888      -0.00001051 </v>
   <v>      -0.00017035      -0.00004860       0.00004860 </v>
   <v>       0.00035923      -0.00060765       0.00060765 </v>
   <v>      -0.00057686      -0.00028074       0.00028074 </v>
   <v>       0.00917894      -0.00722890       0.00722890 </v>
   <v>      -0.00053238       0.00040715      -0.00009049 </v>
   <v>       0.00039762       0.00001051      -0.00016888 </v>
   <v>      -0.00053238      -0.00040715       0.00009049 </v>
   <v>       0.00039762      -0.00001051       0.00016888 </v>
   <v>      -0.00057686       0.00028074      -0.00028074 </v>
   <v>       0.00917894       0.00722890      -0.00722890 </v>
   <v>      -0.00017035       0.00004860      -0.00004860 </v>
   <v>       0.00035923       0.00060765      -0.00060765 </v>
   <v>      -0.00053238      -0.00009049       0.00040715 </v>
   <v>       0.00039762      -0.00016888       0.00001051 </v>
  </varray>
  <varray name="stress" >
   <v>     -13.51453338      -0.00000000       0.00000000 </v>
   <v>       0.00000000     -13.51432829       0.02468253 </v>
   <v>       0.00000000       0.02468253     -13.51432829 </v>
  </varray>
  <energy>
   <i name="e_fr_energy">   -153.65534443 </i>
   <i name="e_wo_entrp">   -153.65534443 </i>
   <i name="e_0_energy">   -153.65534443 </i>
  </energy>
  <time name="totalsc">  584.55  589.60</time>
  <eigenvalues>
   <array>
    <dimension dim="1">band</dimension>
    <dimension dim="2">kpoint</dimension>
    <dimension dim="3">spin</dimension>
    <field>eigene</field>
    <field>occ</field>
    <set>
     <set comment="spin 1">
      <set comment="kpoint 1">
       <r>   -9.1518    1.0000 </r>
       <r>   -8.9452    1.0000 </r>
       <r>   -8.9445    1.0000 </r>
       <r>   -8.9435    1.0000 </r>
       <r>   -8.9435    1.0000 </r>
       <r>   -8.9426    1.0000 </r>
       <r>   -8.9421    1.0000 </r>
       <r>   -8.8452    1.0000 </r>
       <r>   -8.8450    1.0000 </r>
       <r>   -8.8420    1.0000 </r>
       <r>   -8.8420    1.0000 </r>
       <r>   -8.8419    1.0000 </r>
       <r>   -8.8419    1.0000 </r>
       <r>   -8.8419    1.0000 </r>
       <r>   -8.8419    1.0000 </r>
       <r>   -8.8417    1.0000 </r>
       <r>   -8.8417    1.0000 </r>
       <r>   -8.8407    1.0000 </r>
       <r>   -8.8406    1.0000 </r>
       <r>   -8.8401    1.0000 </r>
       <r>   -8.8401    1.0000 </r>
       <r>   -8.8377    1.0000 </r>
       <r>   -8.8374    1.0000 </r>
       <r>   -8.7481    1.0000 </r>
       <r>   -8.7459    1.0000 </r>
       <r>   -8.7459    1.0000 </r>
       <r>   -8.7458    1.0000 </r>
       <r>   -8.7457    1.0000 </r>
       <r>   -8.7452    1.0000 </r>
       <r>   -8.7447    1.0000 </r>
       <r>   -8.7446    1.0000 </r>
       <r>   -8.7425    1.0000 </r>
       <r>   -6.4763    1.0000 </r>
       <r>   -6.4762    1.0000 </r>
       <r>   -6.4761    1.0000 </r>
       <r>   -6.4285    1.0000 </r>
       <r>   -6.4283    1.0000 </r>
       <r>   -6.4283    1.0000 </r>
       <r>   -6.4283    1.0000 </r>
       <r>   -6.4283    1.0000 </r>
       <r>   -6.4282    1.0000 </r>
       <r>   -6.4282    1.0000 </r>
       <r>   -6.4280    1.0000 </r>
       <r>   -6.4187    1.0000 </r>
       <r>   -6.4185    1.0000 </r>
       <r>   -6.4183    1.0000 </r>
       <r>   -6.4182    1.0000 </r>
       <r>   -6.4182    1.0000 </r>
       <r>   -6.4182    1.0000 </r>
       <r>   -6.4181    1.0000 </r>
       <r>   -6.4180    1.0000 </r>
       <r>   -6.4180    1.0000 </r>
       <r>   -6.4178    1.0000 </r>
       <r>   -6.4178    1.0000 </r>
       <r>   -6.4177    1.0000 </r>
       <r>   -6.4165    1.0000 </r>
       <r>   -6.4164    1.0000 </r>
       <r>   -6.4162    1.0000 </r>
       <r>   -6.4162    1.0000 </r>
       <r>   -6.4161    1.0000 </r>
       <r>   -6.4160    1.0000 </r>
       <r>   -6.4160    1.0000 </r>
       <r>   -6.4160    1.0000 </r>
       <r>   -6.4159    1.0000 </r>
       <r>   -6.4157    1.0000 </r>
       <r>   -6.4157    1.0000 </r>
       <r>   -6.4155    1.0000 </r>
       <r>   -6.4139    1.0000 </r>
       <r>   -6.4139    1.0000 </r>
       <r>   -6.4137    1.0000 </r>
       <r>   -6.4137    1.0000 </r>
       <r>   -6.4137    1.0000 </r>
       <r>   -6.4136    1.0000 </r>
       <r>   -6.4136    1.0000 </r>
       <r>   -6.4135    1.0000 </r>
       <r>   -6.4134    1.0000 </r>
       <r>   -6.4134    1.0000 </r>
       <r>   -6.4132    1.0000 </r>
       <r>   -6.4132    1.0000 </r>
       <r>   -6.3861    1.0000 </r>
       <r>   -6.3858    1.0000 </r>
       <r>   -6.3858    1.0000 </r>
       <r>   -6.3858    1.0000 </r>
       <r>   -6.3858    1.0000 </r>
       <r>   -6.3855    1.0000 </r>
       <r>   -6.3770    1.0000 </r>
       <r>   -6.3768    1.0000 </r>
       <r>   -6.3768    1.0000 </r>
       <r>   -6.3768    1.0000 </r>
       <r>   -6.3768    1.0000 </r>
       <r>   -6.3766    1.0000 </r>
       <r>   -6.3550    1.0000 </r>
       <r>   -6.3549    1.0000 </r>
       <r>   -6.3549    1.0000 </r>
       <r>   -6.3549    1.0000 </r>
       <r>   -6.3549    1.0000 </r>
       <r>   -6.3547    1.0000 </r>
       <r>   -6.3493    1.0000 </r>
       <r>   -6.3493    1.0000 </r>
       <r>   -6.3493    1.0000 </r>
       <r>   -6.3401    1.0000 </r>
       <r>   -6.3400    1.0000 </r>
       <r>   -6.3399    1.0000 </r>
       <r>   -6.3399    1.0000 </r>
       <r>   -6.3399    1.0000 </r>
       <r>   -6.3397    1.0000 </r>
       <r>   -6.3018    1.0000 </r>
       <r>   -6.3018    1.0000 </r>
       <r>   -6.3016    1.0000 </r>
       <r>   -6.3016    1.0000 </r>
       <r>   -6.3014    1.0000 </r>
       <r>   -6.3014    1.0000 </r>
       <r>   -6.2857    1.0000 </r>
       <r>   -6.2855    1.0000 </r>
       <r>   -6.2855    1.0000 </r>
       <r>   -6.2853    1.0000 </r>
       <r>   -6.2852    1.0000 </r>
       <r>   -6.2852    1.0000 </r>
       <r>   -6.2852    1.0000 </r>
       <r>   -6.2852    1.0000 </r>
       <r>   -6.2851    1.0000 </r>
       <r>   -6.2851    1.0000 </r>
       <r>   -6.2851    1.0000 </r>
       <r>   -6.2851    1.0000 </r>
       <r>   -6.2838    1.0000 </r>
       <r>   -6.2838    1.0000 </r>
       <r>   -6.2838    1.0000 </r>
       <r>   -6.2838    1.0000 </r>
       <r>   -6.2838    1.0000 </r>
       <r>   -6.2837    1.0000 </r>
       <r>   -6.2837    1.0000 </r>
       <r>   -6.2837    1.0000 </r>
       <r>   -6.2836    1.0000 </r>
       <r>   -6.2834    1.0000 </r>
       <r>   -6.2834    1.0000 </r>
       <r>   -6.2833    1.0000 </r>
       <r>   -6.2808    1.0000 </r>
       <r>   -6.2808    1.0000 </r>
       <r>   -6.2782    1.0000 </r>
       <r>   -6.2781    1.0000 </r>
       <r>   -6.2780    1.0000 </r>
       <r>   -6.2780    1.0000 </r>
       <r>   -6.2779    1.0000 </r>
       <r>   -6.2778    1.0000 </r>
       <r>   -6.2733    1.0000 </r>
       <r>   -6.2733    1.0000 </r>
       <r>   -6.2733    1.0000 </r>
       <r>   -6.2732    1.0000 </r>
       <r>   -6.2732    1.0000 </r>
       <r>   -6.2732    1.0000 </r>
       <r>   -6.2732    1.0000 </r>
       <r>   -6.2732    1.0000 </r>
       <r>   -6.2691    1.0000 </r>
       <r>   -6.2690    1.0000 </r>
       <r>   -6.2689    1.0000 </r>
       <r>   -6.2689    1.0000 </r>
       <r>   -6.2687    1.0000 </r>
       <r>   -6.2686    1.0000 </r>
       <r>   -6.2571    1.0000 </r>
       <r>   -6.2571    1.0000 </r>
       <r>   -6.2571    1.0000 </r>
       <r>   -6.2469    1.0000 </r>
       <r>   -6.2468    1.0000 </r>
       <r>   -6.2467    1.0000 </r>
       <r>   -6.2467    1.0000 </r>
       <r>   -6.2466    1.0000 </r>
       <r>   -6.2465    1.0000 </r>
       <r>   -6.0491    1.0000 </r>
       <r>   -6.0490    1.0000 </r>
       <r>   -6.0490    1.0000 </r>
       <r>   -6.0490    1.0000 </r>
       <r>   -6.0489    1.0000 </r>
       <r>   -6.0489    1.0000 </r>
       <r>   -6.0488    1.0000 </r>
       <r>   -6.0488    1.0000 </r>
       <r>   -6.0487    1.0000 </r>
       <r>   -6.0486    1.0000 </r>
       <r>   -6.0486    1.0000 </r>
       <r>   -6.0486    1.0000 </r>
       <r>   -6.0017    1.0000 </r>
       <r>   -6.0017    1.0000 </r>
       <r>   -6.0015    1.0000 </r>
       <r>   -6.0015    1.0000 </r>
       <r>   -5.8933    1.0000 </r>
       <r>   -5.8932    1.0000 </r>
       <r>   -5.8931    1.0000 </r>
       <r>   -5.8378    1.0000 </r>
       <r>   -5.8377    1.0000 </r>
       <r>   -5.8377    1.0000 </r>
       <r>   -5.8377    1.0000 </r>
       <r>   -5.8376    1.0000 </r>
       <r>   -5.8376    1.0000 </r>
       <r>   -2.3926    1.0000 </r>
       <r>   -2.3919    1.0000 </r>
       <r>   -2.3915    1.0000 </r>
       <r>   -2.3908    1.0000 </r>
       <r>   -2.3478    1.0000 </r>
       <r>   -2.3478    1.0000 </r>
       <r>   -2.3477    1.0000 </r>
       <r>   -2.2334    1.0000 </r>
       <r>   -2.2333    1.0000 </r>
       <r>   -2.2330    1.0000 </r>
       <r>   -2.2330    1.0000 </r>
       <r>   -2.2327    1.0000 </r>
       <r>   -2.2326    1.0000 </r>
       <r>   -1.8387    1.0000 </r>
       <r>   -1.8377    1.0000 </r>
       <r>   -1.8376    1.0000 </r>
       <r>   -1.8375    1.0000 </r>
       <r>   -1.8371    1.0000 </r>
       <r>   -1.8370    1.0000 </r>
       <r>   -1.8369    1.0000 </r>
       <r>   -1.8369    1.0000 </r>
       <r>   -1.8364    1.0000 </r>
       <r>   -1.8364    1.0000 </r>
       <r>   -1.8362    1.0000 </r>
       <r>   -1.8352    1.0000 </r>
       <r>   -0.9771    1.0000 </r>
       <r>   -0.9770    1.0000 </r>
       <r>   -0.9767    1.0000 </r>
       <r>   -0.9767    1.0000 </r>
       <r>   -0.9764    1.0000 </r>
       <r>   -0.9764    1.0000 </r>
       <r>   -0.4486    1.0000 </r>
       <r>   -0.4483    1.0000 </r>
       <r>   -0.4477    1.0000 </r>
       <r>   -0.4477    1.0000 </r>
       <r>   -0.4472    1.0000 </r>
       <r>   -0.4469    1.0000 </r>
       <r>   -0.3031    1.0000 </r>
       <r>   -0.3029    1.0000 </r>
       <r>   -0.3028    1.0000 </r>
       <r>   -0.3028    1.0000 </r>
       <r>   -0.3027    1.0000 </r>
       <r>   -0.3024    1.0000 </r>
       <r>   -0.2874    1.0000 </r>
       <r>   -0.2872    1.0000 </r>
       <r>   -0.2867    1.0000 </r>
       <r>   -0.2863    1.0000 </r>
       <r>   -0.2863    1.0000 </r>
       <r>   -0.2863    1.0000 </r>
       <r>   -0.2860    1.0000 </r>
       <r>   -0.2860    1.0000 </r>
       <r>   -0.2859    1.0000 </r>
       <r>   -0.2856    1.0000 </r>
       <r>   -0.2850    1.0000 </r>
       <r>   -0.2848    1.0000 </r>
       <r>   -0.0428    1.0000 </r>
       <r>   -0.0423    1.0000 </r>
       <r>   -0.0422    1.0000 </r>
       <r>   -0.0422    1.0000 </r>
       <r>   -0.0421    1.0000 </r>
       <r>   -0.0416    1.0000 </r>
       <r>    0.6161    1.0000 </r>
       <r>    0.6169    1.0000 </r>
       <r>    0.6171    1.0000 </r>
       <r>    0.6176    1.0000 </r>
       <r>    0.6177    1.0000 </r>
       <r>    0.6177    1.0000 </r>
       <r>    0.6177    1.0000 </r>
       <r>    0.6177    1.0000 </r>
       <r>    0.6178    1.0000 </r>
       <r>    0.6182    1.0000 </r>
       <r>    0.6185    1.0000 </r>
       <r>    0.6193    1.0000 </r>
       <r>    0.8453    1.0000 </r>
       <r>    0.8463    1.0000 </r>
       <r>    0.8466    1.0000 </r>
       <r>    0.8467    1.0000 </r>
       <r>    0.8470    1.0000 </r>
       <r>    0.8471    1.0000 </r>
       <r>    0.8471    1.0000 </r>
       <r>    0.8471    1.0000 </r>
       <r>    0.8475    1.0000 </r>
       <r>    0.8476    1.0000 </r>
       <r>    0.8478    1.0000 </r>
       <r>    0.8486    1.0000 </r>
       <r>    0.8708    1.0000 </r>
       <r>    0.8714    1.0000 </r>
       <r>    0.8715    1.0000 </r>
       <r>    0.8716    1.0000 </r>
       <r>    0.8720    1.0000 </r>
       <r>    0.8721    1.0000 </r>
       <r>    0.8723    1.0000 </r>
       <r>    0.8730    1.0000 </r>
       <r>    1.5133    1.0000 </r>
       <r>    1.5136    1.0000 </r>
       <r>    1.5139    1.0000 </r>
       <r>    1.9917    0.0000 </r>
       <r>    3.2262    0.0000 </r>
       <r>    3.2265    0.0000 </r>
       <r>    3.2268    0.0000 </r>
       <r>    3.2270    0.0000 </r>
       <r>    4.1684    0.0000 </r>
       <r>    4.1684    0.0000 </r>
       <r>    4.1684    0.0000 </r>
       <r>    4.2413    0.0000 </r>
       <r>    4.2415    0.0000 </r>
       <r>    4.2417    0.0000 </r>
       <r>    4.2417    0.0000 </r>
       <r>    4.2418    0.0000 </r>
       <r>    4.2420    0.0000 </r>
       <r>    4.3197    0.0000 </r>
       <r>    4.3207    0.0000 </r>
       <r>    4.3216    0.0000 </r>
       <r>    4.4323    0.0000 </r>
       <r>    4.4323    0.0000 </r>
       <r>    4.4326    0.0000 </r>
       <r>    4.4327    0.0000 </r>
       <r>    4.4330    0.0000 </r>
       <r>    4.4331    0.0000 </r>
       <r>    4.4332    0.0000 </r>
       <r>    4.4332    0.0000 </r>
       <r>    4.4336    0.0000 </r>
       <r>    4.4337    0.0000 </r>
       <r>    4.4340    0.0000 </r>
       <r>    4.4340    0.0000 </r>
       <r>    4.9328    0.0000 </r>
       <r>    4.9331    0.0000 </r>
       <r>    4.9335    0.0000 </r>
       <r>    4.9335    0.0000 </r>
       <r>    4.9340    0.0000 </r>
       <r>    4.9343    0.0000 </r>
       <r>    5.4162    0.0000 </r>
       <r>    5.4162    0.0000 </r>
       <r>    5.4166    0.0000 </r>
       <r>    5.4166    0.0000 </r>
       <r>    5.4169    0.0000 </r>
       <r>    5.4170    0.0000 </r>
       <r>    6.1650    0.0000 </r>
       <r>    6.1652    0.0000 </r>
       <r>    6.1654    0.0000 </r>
       <r>    6.2135    0.0000 </r>
       <r>    6.2147    0.0000 </r>
       <r>    6.2149    0.0000 </r>
       <r>    6.2149    0.0000 </r>
       <r>    6.2152    0.0000 </r>
       <r>    6.2163    0.0000 </r>
       <r>    6.6929    0.0000 </r>
       <r>    6.6929    0.0000 </r>
       <r>    6.6936    0.0000 </r>
       <r>    6.6936    0.0000 </r>
       <r>    6.6937    0.0000 </r>
       <r>    6.6938    0.0000 </r>
       <r>    6.6939    0.0000 </r>
       <r>    6.6940    0.0000 </r>
       <r>    6.6941    0.0000 </r>
       <r>    6.6941    0.0000 </r>
       <r>    6.6947    0.0000 </r>
       <r>    6.6947    0.0000 </r>
       <r>    6.7230    0.0000 </r>
       <r>    6.7231    0.0000 </r>
       <r>    6.7240    0.0000 </r>
       <r>    6.7241    0.0000 </r>
       <r>    6.7242    0.0000 </r>
       <r>    6.7243    0.0000 </r>
       <r>    6.7253    0.0000 </r>
       <r>    6.7253    0.0000 </r>
       <r>    6.9465    0.0000 </r>
       <r>    6.9472    0.0000 </r>
       <r>    6.9473    0.0000 </r>
       <r>    6.9473    0.0000 </r>
       <r>    6.9474    0.0000 </r>
       <r>    6.9480    0.0000 </r>
       <r>    7.0111    0.0000 </r>
       <r>    7.0116    0.0000 </r>
       <r>    7.0117    0.0000 </r>
       <r>    7.0125    0.0000 </r>
       <r>    7.0126    0.0000 </r>
       <r>    7.0126    0.0000 </r>
       <r>    7.0127    0.0000 </r>
       <r>    7.0127    0.0000 </r>
       <r>    7.0128    0.0000 </r>
       <r>    7.0136    0.0000 </r>
       <r>    7.0137    0.0000 </r>
       <r>    7.0142    0.0000 </r>
       <r>    7.2871    0.0000 </r>
       <r>    7.2882    0.0000 </r>
       <r>    7.2883    0.0000 </r>
       <r>    7.2884    0.0000 </r>
       <r>    7.2886    0.0000 </r>
       <r>    7.2887    0.0000 </r>
       <r>    7.2889    0.0000 </r>
       <r>    7.2895    0.0000 </r>
      </set>
      <set comment="kpoint 2">
       <r>   -9.1238    1.0000 </r>
       <r>   -9.0471    1.0000 </r>
       <r>   -8.9306    1.0000 </r>
       <r>   -8.9298    1.0000 </r>
       <r>   -8.9296    1.0000 </r>
       <r>   -8.9287    1.0000 </r>
       <r>   -8.8930    1.0000 </r>
       <r>   -8.8921    1.0000 </r>
       <r>   -8.8920    1.0000 </r>
       <r>   -8.8911    1.0000 </r>
       <r>   -8.8438    1.0000 </r>
       <r>   -8.8430    1.0000 </r>
       <r>   -8.8419    1.0000 </r>
       <r>   -8.8413    1.0000 </r>
       <r>   -8.8413    1.0000 </r>
       <r>   -8.8405    1.0000 </r>
       <r>   -8.8404    1.0000 </r>
       <r>   -8.8389    1.0000 </r>
       <r>   -8.8384    1.0000 </r>
       <r>   -8.7941    1.0000 </r>
       <r>   -8.7931    1.0000 </r>
       <r>   -8.7931    1.0000 </r>
       <r>   -8.7922    1.0000 </r>
       <r>   -8.7702    1.0000 </r>
       <r>   -8.7593    1.0000 </r>
       <r>   -8.7583    1.0000 </r>
       <r>   -8.7581    1.0000 </r>
       <r>   -8.7574    1.0000 </r>
       <r>   -8.7470    1.0000 </r>
       <r>   -8.7456    1.0000 </r>
       <r>   -8.7448    1.0000 </r>
       <r>   -8.7430    1.0000 </r>
       <r>   -6.4685    1.0000 </r>
       <r>   -6.4683    1.0000 </r>
       <r>   -6.4568    1.0000 </r>
       <r>   -6.4474    1.0000 </r>
       <r>   -6.4472    1.0000 </r>
       <r>   -6.4275    1.0000 </r>
       <r>   -6.4273    1.0000 </r>
       <r>   -6.4272    1.0000 </r>
       <r>   -6.4270    1.0000 </r>
       <r>   -6.4257    1.0000 </r>
       <r>   -6.4256    1.0000 </r>
       <r>   -6.4255    1.0000 </r>
       <r>   -6.4252    1.0000 </r>
       <r>   -6.4252    1.0000 </r>
       <r>   -6.4251    1.0000 </r>
       <r>   -6.4250    1.0000 </r>
       <r>   -6.4249    1.0000 </r>
       <r>   -6.4248    1.0000 </r>
       <r>   -6.4248    1.0000 </r>
       <r>   -6.4247    1.0000 </r>
       <r>   -6.4245    1.0000 </r>
       <r>   -6.4197    1.0000 </r>
       <r>   -6.4194    1.0000 </r>
       <r>   -6.4193    1.0000 </r>
       <r>   -6.4192    1.0000 </r>
       <r>   -6.4190    1.0000 </r>
       <r>   -6.4189    1.0000 </r>
       <r>   -6.4187    1.0000 </r>
       <r>   -6.4187    1.0000 </r>
       <r>   -6.4182    1.0000 </r>
       <r>   -6.4181    1.0000 </r>
       <r>   -6.4180    1.0000 </r>
       <r>   -6.4179    1.0000 </r>
       <r>   -6.4178    1.0000 </r>
       <r>   -6.4178    1.0000 </r>
       <r>   -6.4177    1.0000 </r>
       <r>   -6.4177    1.0000 </r>
       <r>   -6.4046    1.0000 </r>
       <r>   -6.4044    1.0000 </r>
       <r>   -6.4044    1.0000 </r>
       <r>   -6.4042    1.0000 </r>
       <r>   -6.3998    1.0000 </r>
       <r>   -6.3971    1.0000 </r>
       <r>   -6.3969    1.0000 </r>
       <r>   -6.3969    1.0000 </r>
       <r>   -6.3967    1.0000 </r>
       <r>   -6.3925    1.0000 </r>
       <r>   -6.3923    1.0000 </r>
       <r>   -6.3923    1.0000 </r>
       <r>   -6.3921    1.0000 </r>
       <r>   -6.3873    1.0000 </r>
       <r>   -6.3871    1.0000 </r>
       <r>   -6.3816    1.0000 </r>
       <r>   -6.3814    1.0000 </r>
       <r>   -6.3813    1.0000 </r>
       <r>   -6.3812    1.0000 </r>
       <r>   -6.3785    1.0000 </r>
       <r>   -6.3785    1.0000 </r>
       <r>   -6.3741    1.0000 </r>
       <r>   -6.3741    1.0000 </r>
       <r>   -6.3660    1.0000 </r>
       <r>   -6.3660    1.0000 </r>
       <r>   -6.3637    1.0000 </r>
       <r>   -6.3635    1.0000 </r>
       <r>   -6.3631    1.0000 </r>
       <r>   -6.3630    1.0000 </r>
       <r>   -6.3462    1.0000 </r>
       <r>   -6.3383    1.0000 </r>
       <r>   -6.3336    1.0000 </r>
       <r>   -6.3336    1.0000 </r>
       <r>   -6.3221    1.0000 </r>
       <r>   -6.3220    1.0000 </r>
       <r>   -6.3220    1.0000 </r>
       <r>   -6.3219    1.0000 </r>
       <r>   -6.3137    1.0000 </r>
       <r>   -6.3137    1.0000 </r>
       <r>   -6.2998    1.0000 </r>
       <r>   -6.2996    1.0000 </r>
       <r>   -6.2996    1.0000 </r>
       <r>   -6.2995    1.0000 </r>
       <r>   -6.2986    1.0000 </r>
       <r>   -6.2985    1.0000 </r>
       <r>   -6.2985    1.0000 </r>
       <r>   -6.2983    1.0000 </r>
       <r>   -6.2935    1.0000 </r>
       <r>   -6.2932    1.0000 </r>
       <r>   -6.2932    1.0000 </r>
       <r>   -6.2930    1.0000 </r>
       <r>   -6.2856    1.0000 </r>
       <r>   -6.2827    1.0000 </r>
       <r>   -6.2821    1.0000 </r>
       <r>   -6.2821    1.0000 </r>
       <r>   -6.2821    1.0000 </r>
       <r>   -6.2820    1.0000 </r>
       <r>   -6.2807    1.0000 </r>
       <r>   -6.2807    1.0000 </r>
       <r>   -6.2806    1.0000 </r>
       <r>   -6.2805    1.0000 </r>
       <r>   -6.2790    1.0000 </r>
       <r>   -6.2787    1.0000 </r>
       <r>   -6.2785    1.0000 </r>
       <r>   -6.2784    1.0000 </r>
       <r>   -6.2783    1.0000 </r>
       <r>   -6.2776    1.0000 </r>
       <r>   -6.2774    1.0000 </r>
       <r>   -6.2774    1.0000 </r>
       <r>   -6.2773    1.0000 </r>
       <r>   -6.2761    1.0000 </r>
       <r>   -6.2760    1.0000 </r>
       <r>   -6.2759    1.0000 </r>
       <r>   -6.2759    1.0000 </r>
       <r>   -6.2757    1.0000 </r>
       <r>   -6.2757    1.0000 </r>
       <r>   -6.2757    1.0000 </r>
       <r>   -6.2754    1.0000 </r>
       <r>   -6.2754    1.0000 </r>
       <r>   -6.2753    1.0000 </r>
       <r>   -6.2753    1.0000 </r>
       <r>   -6.2752    1.0000 </r>
       <r>   -6.2746    1.0000 </r>
       <r>   -6.2703    1.0000 </r>
       <r>   -6.2702    1.0000 </r>
       <r>   -6.2701    1.0000 </r>
       <r>   -6.2698    1.0000 </r>
       <r>   -6.2695    1.0000 </r>
       <r>   -6.2694    1.0000 </r>
       <r>   -6.2630    1.0000 </r>
       <r>   -6.2603    1.0000 </r>
       <r>   -6.2602    1.0000 </r>
       <r>   -6.2585    1.0000 </r>
       <r>   -6.2249    1.0000 </r>
       <r>   -6.2249    1.0000 </r>
       <r>   -6.2248    1.0000 </r>
       <r>   -6.2248    1.0000 </r>
       <r>   -6.1535    1.0000 </r>
       <r>   -6.1535    1.0000 </r>
       <r>   -6.1535    1.0000 </r>
       <r>   -6.1534    1.0000 </r>
       <r>   -6.1090    1.0000 </r>
       <r>   -6.0375    1.0000 </r>
       <r>   -6.0375    1.0000 </r>
       <r>   -6.0373    1.0000 </r>
       <r>   -6.0372    1.0000 </r>
       <r>   -6.0139    1.0000 </r>
       <r>   -6.0138    1.0000 </r>
       <r>   -6.0136    1.0000 </r>
       <r>   -6.0136    1.0000 </r>
       <r>   -5.9599    1.0000 </r>
       <r>   -5.9427    1.0000 </r>
       <r>   -5.9426    1.0000 </r>
       <r>   -5.9426    1.0000 </r>
       <r>   -5.9425    1.0000 </r>
       <r>   -5.8790    1.0000 </r>
       <r>   -5.8788    1.0000 </r>
       <r>   -5.8654    1.0000 </r>
       <r>   -5.8654    1.0000 </r>
       <r>   -5.8654    1.0000 </r>
       <r>   -5.8653    1.0000 </r>
       <r>   -5.8512    1.0000 </r>
       <r>   -5.8511    1.0000 </r>
       <r>   -2.3218    1.0000 </r>
       <r>   -2.3218    1.0000 </r>
       <r>   -2.2839    1.0000 </r>
       <r>   -2.2832    1.0000 </r>
       <r>   -2.2828    1.0000 </r>
       <r>   -2.2821    1.0000 </r>
       <r>   -2.2646    1.0000 </r>
       <r>   -2.2646    1.0000 </r>
       <r>   -2.1986    1.0000 </r>
       <r>   -2.1982    1.0000 </r>
       <r>   -2.1982    1.0000 </r>
       <r>   -2.1979    1.0000 </r>
       <r>   -2.1642    1.0000 </r>
       <r>   -2.0751    1.0000 </r>
       <r>   -2.0748    1.0000 </r>
       <r>   -2.0748    1.0000 </r>
       <r>   -2.0745    1.0000 </r>
       <r>   -2.0175    1.0000 </r>
       <r>   -2.0167    1.0000 </r>
       <r>   -2.0164    1.0000 </r>
       <r>   -2.0155    1.0000 </r>
       <r>   -1.6721    1.0000 </r>
       <r>   -1.5004    1.0000 </r>
       <r>   -1.5001    1.0000 </r>
       <r>   -1.5001    1.0000 </r>
       <r>   -1.4998    1.0000 </r>
       <r>   -1.1490    1.0000 </r>
       <r>   -1.1487    1.0000 </r>
       <r>   -1.1487    1.0000 </r>
       <r>   -1.1484    1.0000 </r>
       <r>   -0.5794    1.0000 </r>
       <r>   -0.5791    1.0000 </r>
       <r>   -0.5791    1.0000 </r>
       <r>   -0.5787    1.0000 </r>
       <r>   -0.5324    1.0000 </r>
       <r>   -0.5321    1.0000 </r>
       <r>   -0.5321    1.0000 </r>
       <r>   -0.5318    1.0000 </r>
       <r>   -0.3500    1.0000 </r>
       <r>   -0.3500    1.0000 </r>
       <r>   -0.2427    1.0000 </r>
       <r>   -0.2419    1.0000 </r>
       <r>   -0.1549    1.0000 </r>
       <r>   -0.1483    1.0000 </r>
       <r>   -0.1483    1.0000 </r>
       <r>   -0.1130    1.0000 </r>
       <r>   -0.1120    1.0000 </r>
       <r>    0.0087    1.0000 </r>
       <r>    0.0087    1.0000 </r>
       <r>    0.0090    1.0000 </r>
       <r>    0.0090    1.0000 </r>
       <r>    0.0308    1.0000 </r>
       <r>    0.0311    1.0000 </r>
       <r>    0.0312    1.0000 </r>
       <r>    0.0315    1.0000 </r>
       <r>    0.0381    1.0000 </r>
       <r>    0.0385    1.0000 </r>
       <r>    0.0834    1.0000 </r>
       <r>    0.0837    1.0000 </r>
       <r>    0.0837    1.0000 </r>
       <r>    0.0841    1.0000 </r>
       <r>    0.2692    1.0000 </r>
       <r>    0.2695    1.0000 </r>
       <r>    0.4511    1.0000 </r>
       <r>    0.4515    1.0000 </r>
       <r>    0.4515    1.0000 </r>
       <r>    0.4520    1.0000 </r>
       <r>    0.5001    1.0000 </r>
       <r>    0.5006    1.0000 </r>
       <r>    0.5006    1.0000 </r>
       <r>    0.5011    1.0000 </r>
       <r>    0.5650    1.0000 </r>
       <r>    0.5650    1.0000 </r>
       <r>    0.5655    1.0000 </r>
       <r>    0.5655    1.0000 </r>
       <r>    0.7387    1.0000 </r>
       <r>    0.7392    1.0000 </r>
       <r>    0.7392    1.0000 </r>
       <r>    0.7398    1.0000 </r>
       <r>    0.7464    1.0000 </r>
       <r>    0.8521    1.0000 </r>
       <r>    0.8527    1.0000 </r>
       <r>    0.8535    1.0000 </r>
       <r>    0.8540    1.0000 </r>
       <r>    0.8647    1.0000 </r>
       <r>    0.8652    1.0000 </r>
       <r>    0.8660    1.0000 </r>
       <r>    0.8666    1.0000 </r>
       <r>    0.9048    1.0000 </r>
       <r>    0.9054    1.0000 </r>
       <r>    0.9054    1.0000 </r>
       <r>    0.9060    1.0000 </r>
       <r>    1.0202    1.0000 </r>
       <r>    1.0206    1.0000 </r>
       <r>    1.3688    1.0000 </r>
       <r>    1.3693    1.0000 </r>
       <r>    2.7811    0.0000 </r>
       <r>    3.5521    0.0000 </r>
       <r>    3.5525    0.0000 </r>
       <r>    3.5526    0.0000 </r>
       <r>    3.5530    0.0000 </r>
       <r>    3.6828    0.0000 </r>
       <r>    4.1404    0.0000 </r>
       <r>    4.1409    0.0000 </r>
       <r>    4.1412    0.0000 </r>
       <r>    4.1416    0.0000 </r>
       <r>    4.1736    0.0000 </r>
       <r>    4.2629    0.0000 </r>
       <r>    4.2955    0.0000 </r>
       <r>    4.2957    0.0000 </r>
       <r>    4.2957    0.0000 </r>
       <r>    4.2958    0.0000 </r>
       <r>    4.3497    0.0000 </r>
       <r>    4.3498    0.0000 </r>
       <r>    4.3498    0.0000 </r>
       <r>    4.3499    0.0000 </r>
       <r>    4.4245    0.0000 </r>
       <r>    4.4245    0.0000 </r>
       <r>    4.4557    0.0000 </r>
       <r>    4.6093    0.0000 </r>
       <r>    4.6110    0.0000 </r>
       <r>    4.6973    0.0000 </r>
       <r>    4.7176    0.0000 </r>
       <r>    4.7177    0.0000 </r>
       <r>    4.7177    0.0000 </r>
       <r>    4.7177    0.0000 </r>
       <r>    5.0218    0.0000 </r>
       <r>    5.0218    0.0000 </r>
       <r>    5.1570    0.0000 </r>
       <r>    5.1571    0.0000 </r>
       <r>    5.1571    0.0000 </r>
       <r>    5.1573    0.0000 </r>
       <r>    5.2166    0.0000 </r>
       <r>    5.2173    0.0000 </r>
       <r>    5.2173    0.0000 </r>
       <r>    5.2180    0.0000 </r>
       <r>    5.3456    0.0000 </r>
       <r>    5.3825    0.0000 </r>
       <r>    5.3840    0.0000 </r>
       <r>    5.8720    0.0000 </r>
       <r>    6.0026    0.0000 </r>
       <r>    6.0032    0.0000 </r>
       <r>    6.0032    0.0000 </r>
       <r>    6.0038    0.0000 </r>
       <r>    6.3342    0.0000 </r>
       <r>    6.3344    0.0000 </r>
       <r>    6.3344    0.0000 </r>
       <r>    6.3347    0.0000 </r>
       <r>    6.3916    0.0000 </r>
       <r>    6.3920    0.0000 </r>
       <r>    6.5047    0.0000 </r>
       <r>    6.5050    0.0000 </r>
       <r>    6.5057    0.0000 </r>
       <r>    6.5060    0.0000 </r>
       <r>    6.5483    0.0000 </r>
       <r>    6.5486    0.0000 </r>
       <r>    6.5486    0.0000 </r>
       <r>    6.5489    0.0000 </r>
       <r>    6.5980    0.0000 </r>
       <r>    6.5987    0.0000 </r>
       <r>    6.5992    0.0000 </r>
       <r>    6.5999    0.0000 </r>
       <r>    6.8352    0.0000 </r>
       <r>    6.8361    0.0000 </r>
       <r>    6.8363    0.0000 </r>
       <r>    6.8371    0.0000 </r>
       <r>    6.8577    0.0000 </r>
       <r>    6.8578    0.0000 </r>
       <r>    6.8579    0.0000 </r>
       <r>    6.8579    0.0000 </r>
       <r>    6.8592    0.0000 </r>
       <r>    6.8594    0.0000 </r>
       <r>    6.8595    0.0000 </r>
       <r>    6.8601    0.0000 </r>
       <r>    6.8917    0.0000 </r>
       <r>    6.8922    0.0000 </r>
       <r>    6.8922    0.0000 </r>
       <r>    6.8927    0.0000 </r>
       <r>    6.9872    0.0000 </r>
       <r>    6.9876    0.0000 </r>
       <r>    7.1084    0.0000 </r>
       <r>    7.1093    0.0000 </r>
       <r>    7.1095    0.0000 </r>
       <r>    7.1104    0.0000 </r>
       <r>    7.2787    0.0000 </r>
       <r>    7.2792    0.0000 </r>
       <r>    7.2792    0.0000 </r>
       <r>    7.2797    0.0000 </r>
       <r>    7.5047    0.0000 </r>
       <r>    7.5051    0.0000 </r>
       <r>    7.5052    0.0000 </r>
       <r>    7.5059    0.0000 </r>
      </set>
      <set comment="kpoint 3">
       <r>   -9.1238    1.0000 </r>
       <r>   -9.0471    1.0000 </r>
       <r>   -8.9310    1.0000 </r>
       <r>   -8.9297    1.0000 </r>
       <r>   -8.9296    1.0000 </r>
       <r>   -8.9284    1.0000 </r>
       <r>   -8.8933    1.0000 </r>
       <r>   -8.8921    1.0000 </r>
       <r>   -8.8920    1.0000 </r>
       <r>   -8.8909    1.0000 </r>
       <r>   -8.8436    1.0000 </r>
       <r>   -8.8427    1.0000 </r>
       <r>   -8.8418    1.0000 </r>
       <r>   -8.8410    1.0000 </r>
       <r>   -8.8409    1.0000 </r>
       <r>   -8.8408    1.0000 </r>
       <r>   -8.8408    1.0000 </r>
       <r>   -8.8392    1.0000 </r>
       <r>   -8.8389    1.0000 </r>
       <r>   -8.7943    1.0000 </r>
       <r>   -8.7931    1.0000 </r>
       <r>   -8.7931    1.0000 </r>
       <r>   -8.7919    1.0000 </r>
       <r>   -8.7704    1.0000 </r>
       <r>   -8.7595    1.0000 </r>
       <r>   -8.7583    1.0000 </r>
       <r>   -8.7582    1.0000 </r>
       <r>   -8.7571    1.0000 </r>
       <r>   -8.7454    1.0000 </r>
       <r>   -8.7454    1.0000 </r>
       <r>   -8.7449    1.0000 </r>
       <r>   -8.7446    1.0000 </r>
       <r>   -6.4684    1.0000 </r>
       <r>   -6.4683    1.0000 </r>
       <r>   -6.4568    1.0000 </r>
       <r>   -6.4473    1.0000 </r>
       <r>   -6.4473    1.0000 </r>
       <r>   -6.4276    1.0000 </r>
       <r>   -6.4273    1.0000 </r>
       <r>   -6.4272    1.0000 </r>
       <r>   -6.4271    1.0000 </r>
       <r>   -6.4256    1.0000 </r>
       <r>   -6.4255    1.0000 </r>
       <r>   -6.4254    1.0000 </r>
       <r>   -6.4254    1.0000 </r>
       <r>   -6.4253    1.0000 </r>
       <r>   -6.4251    1.0000 </r>
       <r>   -6.4251    1.0000 </r>
       <r>   -6.4249    1.0000 </r>
       <r>   -6.4248    1.0000 </r>
       <r>   -6.4247    1.0000 </r>
       <r>   -6.4246    1.0000 </r>
       <r>   -6.4243    1.0000 </r>
       <r>   -6.4197    1.0000 </r>
       <r>   -6.4196    1.0000 </r>
       <r>   -6.4194    1.0000 </r>
       <r>   -6.4194    1.0000 </r>
       <r>   -6.4187    1.0000 </r>
       <r>   -6.4186    1.0000 </r>
       <r>   -6.4185    1.0000 </r>
       <r>   -6.4184    1.0000 </r>
       <r>   -6.4184    1.0000 </r>
       <r>   -6.4183    1.0000 </r>
       <r>   -6.4182    1.0000 </r>
       <r>   -6.4181    1.0000 </r>
       <r>   -6.4179    1.0000 </r>
       <r>   -6.4178    1.0000 </r>
       <r>   -6.4177    1.0000 </r>
       <r>   -6.4175    1.0000 </r>
       <r>   -6.4045    1.0000 </r>
       <r>   -6.4044    1.0000 </r>
       <r>   -6.4044    1.0000 </r>
       <r>   -6.4043    1.0000 </r>
       <r>   -6.3998    1.0000 </r>
       <r>   -6.3970    1.0000 </r>
       <r>   -6.3969    1.0000 </r>
       <r>   -6.3969    1.0000 </r>
       <r>   -6.3968    1.0000 </r>
       <r>   -6.3924    1.0000 </r>
       <r>   -6.3923    1.0000 </r>
       <r>   -6.3923    1.0000 </r>
       <r>   -6.3923    1.0000 </r>
       <r>   -6.3872    1.0000 </r>
       <r>   -6.3872    1.0000 </r>
       <r>   -6.3814    1.0000 </r>
       <r>   -6.3814    1.0000 </r>
       <r>   -6.3814    1.0000 </r>
       <r>   -6.3813    1.0000 </r>
       <r>   -6.3785    1.0000 </r>
       <r>   -6.3785    1.0000 </r>
       <r>   -6.3741    1.0000 </r>
       <r>   -6.3740    1.0000 </r>
       <r>   -6.3660    1.0000 </r>
       <r>   -6.3660    1.0000 </r>
       <r>   -6.3636    1.0000 </r>
       <r>   -6.3636    1.0000 </r>
       <r>   -6.3630    1.0000 </r>
       <r>   -6.3630    1.0000 </r>
       <r>   -6.3462    1.0000 </r>
       <r>   -6.3383    1.0000 </r>
       <r>   -6.3336    1.0000 </r>
       <r>   -6.3336    1.0000 </r>
       <r>   -6.3221    1.0000 </r>
       <r>   -6.3220    1.0000 </r>
       <r>   -6.3220    1.0000 </r>
       <r>   -6.3218    1.0000 </r>
       <r>   -6.3137    1.0000 </r>
       <r>   -6.3137    1.0000 </r>
       <r>   -6.2997    1.0000 </r>
       <r>   -6.2996    1.0000 </r>
       <r>   -6.2996    1.0000 </r>
       <r>   -6.2994    1.0000 </r>
       <r>   -6.2986    1.0000 </r>
       <r>   -6.2985    1.0000 </r>
       <r>   -6.2985    1.0000 </r>
       <r>   -6.2984    1.0000 </r>
       <r>   -6.2934    1.0000 </r>
       <r>   -6.2933    1.0000 </r>
       <r>   -6.2933    1.0000 </r>
       <r>   -6.2931    1.0000 </r>
       <r>   -6.2856    1.0000 </r>
       <r>   -6.2827    1.0000 </r>
       <r>   -6.2821    1.0000 </r>
       <r>   -6.2821    1.0000 </r>
       <r>   -6.2821    1.0000 </r>
       <r>   -6.2820    1.0000 </r>
       <r>   -6.2806    1.0000 </r>
       <r>   -6.2806    1.0000 </r>
       <r>   -6.2806    1.0000 </r>
       <r>   -6.2806    1.0000 </r>
       <r>   -6.2791    1.0000 </r>
       <r>   -6.2786    1.0000 </r>
       <r>   -6.2784    1.0000 </r>
       <r>   -6.2784    1.0000 </r>
       <r>   -6.2783    1.0000 </r>
       <r>   -6.2776    1.0000 </r>
       <r>   -6.2776    1.0000 </r>
       <r>   -6.2775    1.0000 </r>
       <r>   -6.2774    1.0000 </r>
       <r>   -6.2761    1.0000 </r>
       <r>   -6.2761    1.0000 </r>
       <r>   -6.2760    1.0000 </r>
       <r>   -6.2759    1.0000 </r>
       <r>   -6.2758    1.0000 </r>
       <r>   -6.2757    1.0000 </r>
       <r>   -6.2756    1.0000 </r>
       <r>   -6.2756    1.0000 </r>
       <r>   -6.2754    1.0000 </r>
       <r>   -6.2753    1.0000 </r>
       <r>   -6.2750    1.0000 </r>
       <r>   -6.2750    1.0000 </r>
       <r>   -6.2746    1.0000 </r>
       <r>   -6.2703    1.0000 </r>
       <r>   -6.2702    1.0000 </r>
       <r>   -6.2701    1.0000 </r>
       <r>   -6.2700    1.0000 </r>
       <r>   -6.2694    1.0000 </r>
       <r>   -6.2693    1.0000 </r>
       <r>   -6.2629    1.0000 </r>
       <r>   -6.2603    1.0000 </r>
       <r>   -6.2602    1.0000 </r>
       <r>   -6.2585    1.0000 </r>
       <r>   -6.2250    1.0000 </r>
       <r>   -6.2249    1.0000 </r>
       <r>   -6.2249    1.0000 </r>
       <r>   -6.2247    1.0000 </r>
       <r>   -6.1536    1.0000 </r>
       <r>   -6.1535    1.0000 </r>
       <r>   -6.1535    1.0000 </r>
       <r>   -6.1533    1.0000 </r>
       <r>   -6.1090    1.0000 </r>
       <r>   -6.0375    1.0000 </r>
       <r>   -6.0374    1.0000 </r>
       <r>   -6.0373    1.0000 </r>
       <r>   -6.0372    1.0000 </r>
       <r>   -6.0139    1.0000 </r>
       <r>   -6.0138    1.0000 </r>
       <r>   -6.0137    1.0000 </r>
       <r>   -6.0136    1.0000 </r>
       <r>   -5.9599    1.0000 </r>
       <r>   -5.9427    1.0000 </r>
       <r>   -5.9426    1.0000 </r>
       <r>   -5.9426    1.0000 </r>
       <r>   -5.9425    1.0000 </r>
       <r>   -5.8789    1.0000 </r>
       <r>   -5.8789    1.0000 </r>
       <r>   -5.8654    1.0000 </r>
       <r>   -5.8654    1.0000 </r>
       <r>   -5.8654    1.0000 </r>
       <r>   -5.8653    1.0000 </r>
       <r>   -5.8511    1.0000 </r>
       <r>   -5.8511    1.0000 </r>
       <r>   -2.3218    1.0000 </r>
       <r>   -2.3217    1.0000 </r>
       <r>   -2.2838    1.0000 </r>
       <r>   -2.2832    1.0000 </r>
       <r>   -2.2828    1.0000 </r>
       <r>   -2.2822    1.0000 </r>
       <r>   -2.2646    1.0000 </r>
       <r>   -2.2646    1.0000 </r>
       <r>   -2.1987    1.0000 </r>
[...]
      </set>
     </set>
    </set>
   </array>
  </eigenvalues>
  <separator name="orbital magnetization" >
   <v name="MAGDIPOLOUT">      0.00000000      0.00000000      0.00000000</v>
  </separator>
  <dos>
   <i name="efermi">      1.76775398 </i>
   <total>
    <array>
     <dimension dim="1">gridpoints</dimension>
     <dimension dim="2">spin</dimension>
     <field>energy</field>
     <field>total</field>
     <field>integrated</field>
     <set>
      <set comment="spin 1">
       <r>    -9.9865     0.0000     0.0000 </r>
       <r>    -9.9253     0.0000     0.0000 </r>
       <r>    -9.8641     0.0000     0.0000 </r>
       <r>    -9.8029     0.0000     0.0000 </r>
       <r>    -9.7417     0.0000     0.0000 </r>
       <r>    -9.6805     0.0000     0.0000 </r>
       <r>    -9.6193     0.0000     0.0000 </r>
       <r>    -9.5580     0.0000     0.0000 </r>
       <r>    -9.4968     0.0000     0.0000 </r>
       <r>    -9.4356     0.0000     0.0000 </r>
       <r>    -9.3744     0.0000     0.0000 </r>
       <r>    -9.3132     0.0000     0.0000 </r>
       <r>    -9.2520     0.0039     0.0002 </r>
       <r>    -9.1908     0.4351     0.0269 </r>
       <r>    -9.1296     6.9119     0.4500 </r>
       <r>    -9.0684    24.1706     1.9294 </r>
       <r>    -9.0072    46.8566     4.7975 </r>
       <r>    -8.9459    71.8811     9.1974 </r>
       <r>    -8.8847   128.1452    17.0412 </r>
       <r>    -8.8235   240.5428    31.7649 </r>
       <r>    -8.7623   336.7048    52.3746 </r>
       <r>    -8.7011   174.1036    63.0316 </r>
       <r>    -8.6399    15.6805    63.9914 </r>
       <r>    -8.5787     0.1409    64.0000 </r>
       <r>    -8.5175     0.0001    64.0000 </r>
       <r>    -8.4563     0.0000    64.0000 </r>
       <r>    -8.3951     0.0000    64.0000 </r>
       <r>    -8.3338     0.0000    64.0000 </r>
       <r>    -8.2726     0.0000    64.0000 </r>
       <r>    -8.2114     0.0000    64.0000 </r>
       <r>    -8.1502     0.0000    64.0000 </r>
       <r>    -8.0890     0.0000    64.0000 </r>
       <r>    -8.0278     0.0000    64.0000 </r>
       <r>    -7.9666     0.0000    64.0000 </r>
       <r>    -7.9054     0.0000    64.0000 </r>
       <r>    -7.8442     0.0000    64.0000 </r>
       <r>    -7.7830     0.0000    64.0000 </r>
       <r>    -7.7217     0.0000    64.0000 </r>
       <r>    -7.6605     0.0000    64.0000 </r>
       <r>    -7.5993     0.0000    64.0000 </r>
       <r>    -7.5381     0.0000    64.0000 </r>
       <r>    -7.4769     0.0000    64.0000 </r>
       <r>    -7.4157     0.0000    64.0000 </r>
       <r>    -7.3545     0.0000    64.0000 </r>
       <r>    -7.2933     0.0000    64.0000 </r>
       <r>    -7.2321     0.0000    64.0000 </r>
       <r>    -7.1709     0.0000    64.0000 </r>
       <r>    -7.1096     0.0000    64.0000 </r>
       <r>    -7.0484     0.0000    64.0000 </r>
       <r>    -6.9872     0.0000    64.0000 </r>
       <r>    -6.9260     0.0000    64.0000 </r>
       <r>    -6.8648     0.0000    64.0000 </r>
       <r>    -6.8036     0.0000    64.0000 </r>
       <r>    -6.7424     0.0000    64.0000 </r>
       <r>    -6.6812     0.0000    64.0000 </r>
       <r>    -6.6200     0.0006    64.0000 </r>
       <r>    -6.5587     0.5086    64.0312 </r>
       <r>    -6.4975    42.3071    66.6208 </r>
       <r>    -6.4363   509.5733    97.8119 </r>
       <r>    -6.3751  1161.3328   168.8973 </r>
       <r>    -6.3139   955.8267   227.4037 </r>
       <r>    -6.2527  1226.3909   302.4713 </r>
       <r>    -6.1915   470.3398   331.2609 </r>
       <r>    -6.1303    91.0874   336.8364 </r>
       <r>    -6.0691    96.1128   342.7195 </r>
       <r>    -6.0079   137.3495   351.1267 </r>
       <r>    -5.9466   176.6765   361.9411 </r>
       <r>    -5.8854   209.5080   374.7651 </r>
       <r>    -5.8242   130.5715   382.7575 </r>
       <r>    -5.7630    19.8775   383.9742 </r>
       <r>    -5.7018     0.4213   383.9999 </r>
       <r>    -5.6406     0.0008   384.0000 </r>
       <r>    -5.5794     0.0000   384.0000 </r>
       <r>    -5.5182     0.0000   384.0000 </r>
       <r>    -5.4570     0.0000   384.0000 </r>
       <r>    -5.3958     0.0000   384.0000 </r>
       <r>    -5.3345     0.0000   384.0000 </r>
       <r>    -5.2733     0.0000   384.0000 </r>
       <r>    -5.2121     0.0000   384.0000 </r>
       <r>    -5.1509     0.0000   384.0000 </r>
       <r>    -5.0897     0.0000   384.0000 </r>
       <r>    -5.0285     0.0000   384.0000 </r>
       <r>    -4.9673     0.0000   384.0000 </r>
       <r>    -4.9061     0.0000   384.0000 </r>
       <r>    -4.8449     0.0000   384.0000 </r>
       <r>    -4.7837     0.0000   384.0000 </r>
       <r>    -4.7224     0.0000   384.0000 </r>
       <r>    -4.6612     0.0000   384.0000 </r>
       <r>    -4.6000     0.0000   384.0000 </r>
       <r>    -4.5388     0.0000   384.0000 </r>
       <r>    -4.4776     0.0000   384.0000 </r>
       <r>    -4.4164     0.0000   384.0000 </r>
       <r>    -4.3552     0.0000   384.0000 </r>
       <r>    -4.2940     0.0000   384.0000 </r>
       <r>    -4.2328     0.0000   384.0000 </r>
       <r>    -4.1716     0.0000   384.0000 </r>
       <r>    -4.1103     0.0000   384.0000 </r>
       <r>    -4.0491     0.0000   384.0000 </r>
       <r>    -3.9879     0.0000   384.0000 </r>
       <r>    -3.9267     0.0000   384.0000 </r>
       <r>    -3.8655     0.0000   384.0000 </r>
       <r>    -3.8043     0.0000   384.0000 </r>
       <r>    -3.7431     0.0000   384.0000 </r>
       <r>    -3.6819     0.0000   384.0000 </r>
       <r>    -3.6207     0.0000   384.0000 </r>
       <r>    -3.5594     0.0000   384.0000 </r>
       <r>    -3.4982     0.0000   384.0000 </r>
       <r>    -3.4370     0.0000   384.0000 </r>
       <r>    -3.3758     0.0000   384.0000 </r>
       <r>    -3.3146     0.0000   384.0000 </r>
       <r>    -3.2534     0.0000   384.0000 </r>
       <r>    -3.1922     0.0000   384.0000 </r>
       <r>    -3.1310     0.0000   384.0000 </r>
       <r>    -3.0698     0.0000   384.0000 </r>
       <r>    -3.0086     0.0000   384.0000 </r>
       <r>    -2.9473     0.0000   384.0000 </r>
       <r>    -2.8861     0.0000   384.0000 </r>
       <r>    -2.8249     0.0000   384.0000 </r>
       <r>    -2.7637     0.0000   384.0000 </r>
       <r>    -2.7025     0.0000   384.0000 </r>
       <r>    -2.6413     0.0000   384.0000 </r>
       <r>    -2.5801     0.0000   384.0000 </r>
       <r>    -2.5189     0.0008   384.0000 </r>
       <r>    -2.4577     0.1550   384.0095 </r>
       <r>    -2.3965     2.9610   384.1908 </r>
       <r>    -2.3352    22.2666   385.5537 </r>
       <r>    -2.2740    72.8057   390.0102 </r>
       <r>    -2.2128   150.2536   399.2072 </r>
       <r>    -2.1516   188.3761   410.7378 </r>
       <r>    -2.0904    66.0331   414.7797 </r>
       <r>    -2.0292    72.1155   419.1939 </r>
       <r>    -1.9680    54.0508   422.5023 </r>
       <r>    -1.9068    19.8313   423.7162 </r>
       <r>    -1.8456    29.3461   425.5125 </r>
       <r>    -1.7844    28.7491   427.2722 </r>
       <r>    -1.7231    41.3263   429.8018 </r>
       <r>    -1.6619    51.0173   432.9246 </r>
       <r>    -1.6007    10.1135   433.5436 </r>
       <r>    -1.5395     4.0444   433.7912 </r>
       <r>    -1.4783    17.3931   434.8558 </r>
       <r>    -1.4171     8.0219   435.3469 </r>
       <r>    -1.3559     9.9669   435.9569 </r>
       <r>    -1.2947    19.6133   437.1575 </r>
       <r>    -1.2335    19.8798   438.3743 </r>
       <r>    -1.1722    15.4058   439.3173 </r>
       <r>    -1.1110    17.8841   440.4120 </r>
       <r>    -1.0498     4.8222   440.7072 </r>
       <r>    -0.9886     9.2322   441.2723 </r>
       <r>    -0.9274    10.6822   441.9261 </r>
       <r>    -0.8662     1.2034   441.9998 </r>
       <r>    -0.8050     1.1662   442.0712 </r>
       <r>    -0.7438    13.7278   442.9115 </r>
       <r>    -0.6826    20.5147   444.1672 </r>
       <r>    -0.6214    19.3931   445.3542 </r>
       <r>    -0.5601    42.2841   447.9425 </r>
       <r>    -0.4989    52.9589   451.1841 </r>
       <r>    -0.4377    90.2666   456.7093 </r>
       <r>    -0.3765    68.4797   460.9010 </r>
       <r>    -0.3153    54.7718   464.2536 </r>
       <r>    -0.2541    80.4493   469.1779 </r>
       <r>    -0.1929    45.0330   471.9344 </r>
       <r>    -0.1317    36.5671   474.1727 </r>
       <r>    -0.0705    75.4736   478.7924 </r>
       <r>    -0.0093    69.0862   483.0212 </r>
       <r>     0.0520    95.9845   488.8964 </r>
       <r>     0.1132   108.1365   495.5155 </r>
       <r>     0.1744    99.9603   501.6341 </r>
       <r>     0.2356    85.2027   506.8493 </r>
       <r>     0.2968    47.7727   509.7735 </r>
       <r>     0.3580    71.3600   514.1415 </r>
       <r>     0.4192    67.6032   518.2795 </r>
       <r>     0.4804   103.3679   524.6067 </r>
       <r>     0.5416   101.4397   530.8158 </r>
       <r>     0.6028    89.1486   536.2726 </r>
       <r>     0.6641    55.0819   539.6442 </r>
       <r>     0.7253    70.8403   543.9803 </r>
       <r>     0.7865    68.2858   548.1601 </r>
       <r>     0.8477    79.8757   553.0493 </r>
       <r>     0.9089   112.2428   559.9198 </r>
       <r>     0.9701    35.0289   562.0639 </r>
       <r>     1.0313    35.3069   564.2250 </r>
       <r>     1.0925    38.1793   566.5620 </r>
       <r>     1.1537    30.6029   568.4352 </r>
       <r>     1.2149    46.8870   571.3052 </r>
       <r>     1.2762    24.1521   572.7835 </r>
       <r>     1.3374    14.9029   573.6957 </r>
       <r>     1.3986    17.3230   574.7561 </r>
       <r>     1.4598    11.5363   575.4622 </r>
       <r>     1.5210     6.9952   575.8904 </r>
       <r>     1.5822     1.6949   575.9941 </r>
       <r>     1.6434     0.0956   576.0000 </r>
       <r>     1.7046     0.0004   576.0000 </r>
       <r>     1.7658     0.0000   576.0000 </r>
       <r>     1.8271     0.0000   576.0000 </r>
       <r>     1.8883     0.0021   576.0001 </r>
       <r>     1.9495     0.1387   576.0086 </r>
       <r>     2.0107     0.7119   576.0522 </r>
       <r>     2.0719     0.3434   576.0732 </r>
       <r>     2.1331     0.0140   576.0741 </r>
       <r>     2.1943     0.0000   576.0741 </r>
       <r>     2.2555     0.0000   576.0741 </r>
       <r>     2.3167     0.0000   576.0741 </r>
       <r>     2.3779     0.0000   576.0741 </r>
       <r>     2.4392     0.0000   576.0741 </r>
       <r>     2.5004     0.0000   576.0741 </r>
       <r>     2.5616     0.0000   576.0741 </r>
       <r>     2.6228     0.0000   576.0741 </r>
       <r>     2.6840     0.0218   576.0754 </r>
       <r>     2.7452     1.1022   576.1429 </r>
       <r>     2.8064     4.4144   576.4131 </r>
       <r>     2.8676     1.6702   576.5153 </r>
       <r>     2.9288     0.0589   576.5189 </r>
       <r>     2.9900     0.8170   576.5689 </r>
       <r>     3.0513     7.4328   577.0239 </r>
       <r>     3.1125     8.9881   577.5741 </r>
       <r>     3.1737     6.3119   577.9604 </r>
       <r>     3.2349     3.6713   578.1851 </r>
       <r>     3.2961     5.1184   578.4984 </r>
       <r>     3.3573     5.5297   578.8369 </r>
       <r>     3.4185     0.8417   578.8884 </r>
       <r>     3.4797     0.6868   578.9305 </r>
       <r>     3.5409    17.6837   580.0129 </r>
       <r>     3.6021    61.2296   583.7608 </r>
       <r>     3.6634    39.7420   586.1934 </r>
       <r>     3.7246    24.3311   587.6827 </r>
       <r>     3.7858     8.5242   588.2045 </r>
       <r>     3.8470     1.1249   588.2733 </r>
       <r>     3.9082     7.5898   588.7379 </r>
       <r>     3.9694    15.4269   589.6822 </r>
       <r>     4.0306    43.9230   592.3707 </r>
       <r>     4.0918    40.9369   594.8765 </r>
       <r>     4.1530    53.2614   598.1366 </r>
       <r>     4.2142    37.1633   600.4114 </r>
       <r>     4.2755    21.5644   601.7314 </r>
       <r>     4.3367    47.9928   604.6690 </r>
       <r>     4.3979    70.5570   608.9878 </r>
       <r>     4.4591   106.5132   615.5075 </r>
       <r>     4.5203   118.2832   622.7477 </r>
       <r>     4.5815    42.5323   625.3511 </r>
       <r>     4.6427    46.6225   628.2048 </r>
       <r>     4.7039    69.4326   632.4548 </r>
       <r>     4.7651    48.8360   635.4441 </r>
       <r>     4.8264    23.2574   636.8677 </r>
       <r>     4.8876     7.0504   637.2992 </r>
       <r>     4.9488    34.5969   639.4169 </r>
       <r>     5.0100    52.3309   642.6201 </r>
       <r>     5.0712    18.1731   643.7325 </r>
       <r>     5.1324    15.3531   644.6723 </r>
       <r>     5.1936    44.0948   647.3713 </r>
       <r>     5.2548    37.2630   649.6522 </r>
       <r>     5.3160    13.2422   650.4627 </r>
       <r>     5.3772    29.2643   652.2540 </r>
       <r>     5.4385    23.0658   653.6659 </r>
       <r>     5.4997    21.1046   654.9577 </r>
       <r>     5.5609    17.3917   656.0222 </r>
       <r>     5.6221    30.9869   657.9190 </r>
       <r>     5.6833    23.6185   659.3647 </r>
       <r>     5.7445    18.0167   660.4675 </r>
       <r>     5.8057     3.4866   660.6809 </r>
       <r>     5.8669     9.5008   661.2624 </r>
       <r>     5.9281    66.5870   665.3382 </r>
       <r>     5.9893   100.3982   671.4836 </r>
       <r>     6.0506    44.5301   674.2093 </r>
       <r>     6.1118     4.9661   674.5133 </r>
       <r>     6.1730    23.6044   675.9581 </r>
       <r>     6.2342    83.9352   681.0958 </r>
       <r>     6.2954    94.3347   686.8701 </r>
       <r>     6.3566    87.0855   692.2006 </r>
       <r>     6.4178    38.5923   694.5628 </r>
       <r>     6.4790    46.0209   697.3798 </r>
       <r>     6.5402    70.5342   701.6972 </r>
       <r>     6.6014    55.2637   705.0799 </r>
       <r>     6.6627    38.2262   707.4197 </r>
       <r>     6.7239    43.9139   710.1077 </r>
       <r>     6.7851    26.9390   711.7567 </r>
       <r>     6.8463    69.5194   716.0120 </r>
       <r>     6.9075   122.2457   723.4946 </r>
       <r>     6.9687    73.1423   727.9717 </r>
       <r>     7.0299    79.2575   732.8231 </r>
       <r>     7.0911    95.2906   738.6558 </r>
       <r>     7.1523    99.7276   744.7602 </r>
       <r>     7.2136    45.4176   747.5402 </r>
       <r>     7.2748    63.1300   751.4044 </r>
       <r>     7.3360    66.0038   755.4445 </r>
       <r>     7.3972    54.1254   758.7575 </r>
       <r>     7.4584    57.9490   762.3046 </r>
       <r>     7.5196    63.9495   766.2190 </r>
       <r>     7.5808    27.0314   767.8736 </r>
       <r>     7.6420     2.0415   767.9985 </r>
       <r>     7.7032     0.0241   768.0000 </r>
       <r>     7.7644     0.0000   768.0000 </r>
       <r>     7.8257     0.0000   768.0000 </r>
       <r>     7.8869     0.0000   768.0000 </r>
       <r>     7.9481     0.0000   768.0000 </r>
       <r>     8.0093     0.0000   768.0000 </r>
       <r>     8.0705     0.0000   768.0000 </r>
       <r>     8.1317     0.0000   768.0000 </r>
       <r>     8.1929     0.0000   768.0000 </r>
       <r>     8.2541     0.0000   768.0000 </r>
       <r>     8.3153     0.0000   768.0000 </r>
       <r>     8.3765     0.0000   768.0000 </r>
      </set>
     </set>
    </array>
   </total>
  </dos>
 </calculation>
 <structure name="finalpos" >
  <crystal>
   <varray name="basis" >
    <v>      13.39071620       0.00000000       0.00000000 </v>
    <v>       0.00000000      13.39071620       0.00000000 </v>
    <v>       0.00000000       0.00000000      13.39071620 </v>
   </varray>
   <i name="volume">   2401.10646453 </i>
   <varray name="rec_basis" >
    <v>       0.07467860       0.00000000       0.00000000 </v>
    <v>       0.00000000       0.07467860       0.00000000 </v>
    <v>       0.00000000       0.00000000       0.07467860 </v>
   </varray>
  </crystal>
  <varray name="positions" >
   <v>       0.00074679       0.00000000       0.00000000 </v>
   <v>       0.50000000       0.00000000       0.00000000 </v>
   <v>       0.00000000       0.50000000       0.00000000 </v>
   <v>       0.50000000       0.50000000       0.00000000 </v>
   <v>       0.00000000       0.00000000       0.50000000 </v>
   <v>       0.50000000       0.00000000       0.50000000 </v>
   <v>       0.00000000       0.50000000       0.50000000 </v>
   <v>       0.50000000       0.50000000       0.50000000 </v>
   <v>       0.00000000       0.25000000       0.25000000 </v>
   <v>       0.50000000       0.25000000       0.25000000 </v>
   <v>       0.00000000       0.75000000       0.25000000 </v>
   <v>       0.50000000       0.75000000       0.25000000 </v>
   <v>       0.00000000       0.25000000       0.75000000 </v>
   <v>       0.50000000       0.25000000       0.75000000 </v>
   <v>       0.00000000       0.75000000       0.75000000 </v>
   <v>       0.50000000       0.75000000       0.75000000 </v>
   <v>       0.25000000       0.00000000       0.25000000 </v>
   <v>       0.75000000       0.00000000       0.25000000 </v>
   <v>       0.25000000       0.50000000       0.25000000 </v>
   <v>       0.75000000       0.50000000       0.25000000 </v>
   <v>       0.25000000       0.00000000       0.75000000 </v>
   <v>       0.75000000       0.00000000       0.75000000 </v>
   <v>       0.25000000       0.50000000       0.75000000 </v>
   <v>       0.75000000       0.50000000       0.75000000 </v>
   <v>       0.25000000       0.25000000       0.00000000 </v>
   <v>       0.75000000       0.25000000       0.00000000 </v>
   <v>       0.25000000       0.75000000       0.00000000 </v>
   <v>       0.75000000       0.75000000       0.00000000 </v>
   <v>       0.25000000       0.25000000       0.50000000 </v>
   <v>       0.75000000       0.25000000       0.50000000 </v>
   <v>       0.25000000       0.75000000       0.50000000 </v>
   <v>       0.75000000       0.75000000       0.50000000 </v>
   <v>       0.12500000       0.12500000       0.12500000 </v>
   <v>       0.62500000       0.12500000       0.12500000 </v>
   <v>       0.12500000       0.62500000       0.12500000 </v>
   <v>       0.62500000       0.62500000       0.12500000 </v>
   <v>       0.12500000       0.12500000       0.62500000 </v>
   <v>       0.62500000       0.12500000       0.62500000 </v>
   <v>       0.12500000       0.62500000       0.62500000 </v>
   <v>       0.62500000       0.62500000       0.62500000 </v>
   <v>       0.12500000       0.37500000       0.37500000 </v>
   <v>       0.62500000       0.37500000       0.37500000 </v>
   <v>       0.12500000       0.87500000       0.37500000 </v>
   <v>       0.62500000       0.87500000       0.37500000 </v>
   <v>       0.12500000       0.37500000       0.87500000 </v>
   <v>       0.62500000       0.37500000       0.87500000 </v>
   <v>       0.12500000       0.87500000       0.87500000 </v>
   <v>       0.62500000       0.87500000       0.87500000 </v>
   <v>       0.37500000       0.12500000       0.37500000 </v>
   <v>       0.87500000       0.12500000       0.37500000 </v>
   <v>       0.37500000       0.62500000       0.37500000 </v>
   <v>       0.87500000       0.62500000       0.37500000 </v>
   <v>       0.37500000       0.12500000       0.87500000 </v>
   <v>       0.87500000       0.12500000       0.87500000 </v>
   <v>       0.37500000       0.62500000       0.87500000 </v>
   <v>       0.87500000       0.62500000       0.87500000 </v>
   <v>       0.37500000       0.37500000       0.12500000 </v>
   <v>       0.87500000       0.37500000       0.12500000 </v>
   <v>       0.37500000       0.87500000       0.12500000 </v>
   <v>       0.87500000       0.87500000       0.12500000 </v>
   <v>       0.37500000       0.37500000       0.62500000 </v>
   <v>       0.87500000       0.37500000       0.62500000 </v>
   <v>       0.37500000       0.87500000       0.62500000 </v>
   <v>       0.87500000       0.87500000       0.62500000 </v>
  </varray>
 </structure>
</modeling>
