<?xml version="1.0" encoding="ISO-8859-1"?>
<modeling>
 <generator>
  <i name="program" type="string">vasp </i>
  <i name="version" type="string">6.3.0  </i>
  <i name="subversion" type="string">20Jan22 (build Feb 10 2022 15:15:41) complex                          parallel </i>
  <i name="platform" type="string">LinuxIFC </i>
  <i name="date" type="string">2023 10 05 </i>
  <i name="time" type="string">11:53:49 </i>
 </generator>
 <incar>
  <i name="EDIFF">      0.00010000</i>
  <i name="ENCUT">    360.00000000</i>
  <i type="int" name="ISMEAR">     0</i>
  <i name="SIGMA">      0.05000000</i>
 </incar>
 <primitive_cell>
  <structure name="primitive_cell" >
   <crystal>
    <varray name="basis" >
     <v>      13.25813485       0.00000000       0.00000000 </v>
     <v>       0.00000000      13.25813485       0.00000000 </v>
     <v>       0.00000000       0.00000000      13.25813485 </v>
    </varray>
    <i name="volume">   2330.49027860 </i>
    <varray name="rec_basis" >
     <v>       0.07542539       0.00000000       0.00000000 </v>
     <v>       0.00000000       0.07542539       0.00000000 </v>
     <v>       0.00000000       0.00000000       0.07542539 </v>
    </varray>
   </crystal>
   <varray name="positions" >
    <v>       0.00075425       0.00000000       0.00000000 </v>
    <v>       0.50000000       0.00000000       0.00000000 </v>
    <v>       0.00000000       0.50000000       0.00000000 </v>
    <v>       0.50000000       0.50000000       0.00000000 </v>
    <v>       0.00000000       0.00000000       0.50000000 </v>
    <v>       0.50000000       0.00000000       0.50000000 </v>
    <v>       0.00000000       0.50000000       0.50000000 </v>
    <v>       0.50000000       0.50000000       0.50000000 </v>
    <v>       0.00000000       0.25000000       0.25000000 </v>
    <v>       0.50000000       0.25000000       0.25000000 </v>
    <v>       0.00000000       0.75000000       0.25000000 </v>
    <v>       0.50000000       0.75000000       0.25000000 </v>
    <v>       0.00000000       0.25000000       0.75000000 </v>
    <v>       0.50000000       0.25000000       0.75000000 </v>
    <v>       0.00000000       0.75000000       0.75000000 </v>
    <v>       0.50000000       0.75000000       0.75000000 </v>
    <v>       0.25000000       0.00000000       0.25000000 </v>
    <v>       0.75000000       0.00000000       0.25000000 </v>
    <v>       0.25000000       0.50000000       0.25000000 </v>
    <v>       0.75000000       0.50000000       0.25000000 </v>
    <v>       0.25000000       0.00000000       0.75000000 </v>
    <v>       0.75000000       0.00000000       0.75000000 </v>
    <v>       0.25000000       0.50000000       0.75000000 </v>
    <v>       0.75000000       0.50000000       0.75000000 </v>
    <v>       0.25000000       0.25000000       0.00000000 </v>
    <v>       0.75000000       0.25000000       0.00000000 </v>
    <v>       0.25000000       0.75000000       0.00000000 </v>
    <v>       0.75000000       0.75000000       0.00000000 </v>
    <v>       0.25000000       0.25000000       0.50000000 </v>
    <v>       0.75000000       0.25000000       0.50000000 </v>
    <v>       0.25000000       0.75000000       0.50000000 </v>
    <v>       0.75000000       0.75000000       0.50000000 </v>
    <v>       0.12500000       0.12500000       0.12500000 </v>
    <v>       0.62500000       0.12500000       0.12500000 </v>
    <v>       0.12500000       0.62500000       0.12500000 </v>
    <v>       0.62500000       0.62500000       0.12500000 </v>
    <v>       0.12500000       0.12500000       0.62500000 </v>
    <v>       0.62500000       0.12500000       0.62500000 </v>
    <v>       0.12500000       0.62500000       0.62500000 </v>
    <v>       0.62500000       0.62500000       0.62500000 </v>
    <v>       0.12500000       0.37500000       0.37500000 </v>
    <v>       0.62500000       0.37500000       0.37500000 </v>
    <v>       0.12500000       0.87500000       0.37500000 </v>
    <v>       0.62500000       0.87500000       0.37500000 </v>
    <v>       0.12500000       0.37500000       0.87500000 </v>
    <v>       0.62500000       0.37500000       0.87500000 </v>
    <v>       0.12500000       0.87500000       0.87500000 </v>
    <v>       0.62500000       0.87500000       0.87500000 </v>
    <v>       0.37500000       0.12500000       0.37500000 </v>
    <v>       0.87500000       0.12500000       0.37500000 </v>
    <v>       0.37500000       0.62500000       0.37500000 </v>
    <v>       0.87500000       0.62500000       0.37500000 </v>
    <v>       0.37500000       0.12500000       0.87500000 </v>
    <v>       0.87500000       0.12500000       0.87500000 </v>
    <v>       0.37500000       0.62500000       0.87500000 </v>
    <v>       0.87500000       0.62500000       0.87500000 </v>
    <v>       0.37500000       0.37500000       0.12500000 </v>
    <v>       0.87500000       0.37500000       0.12500000 </v>
    <v>       0.37500000       0.87500000       0.12500000 </v>
    <v>       0.87500000       0.87500000       0.12500000 </v>
    <v>       0.37500000       0.37500000       0.62500000 </v>
    <v>       0.87500000       0.37500000       0.62500000 </v>
    <v>       0.37500000       0.87500000       0.62500000 </v>
    <v>       0.87500000       0.87500000       0.62500000 </v>
   </varray>
  </structure>
  <varray name="primitive_index" >
   <v type="int" >        1 </v>
   <v type="int" >        2 </v>
   <v type="int" >        3 </v>
   <v type="int" >        4 </v>
   <v type="int" >        5 </v>
   <v type="int" >        6 </v>
   <v type="int" >        7 </v>
   <v type="int" >        8 </v>
   <v type="int" >        9 </v>
   <v type="int" >       10 </v>
   <v type="int" >       11 </v>
   <v type="int" >       12 </v>
   <v type="int" >       13 </v>
   <v type="int" >       14 </v>
   <v type="int" >       15 </v>
   <v type="int" >       16 </v>
   <v type="int" >       17 </v>
   <v type="int" >       18 </v>
   <v type="int" >       19 </v>
   <v type="int" >       20 </v>
   <v type="int" >       21 </v>
   <v type="int" >       22 </v>
   <v type="int" >       23 </v>
   <v type="int" >       24 </v>
   <v type="int" >       25 </v>
   <v type="int" >       26 </v>
   <v type="int" >       27 </v>
   <v type="int" >       28 </v>
   <v type="int" >       29 </v>
   <v type="int" >       30 </v>
   <v type="int" >       31 </v>
   <v type="int" >       32 </v>
   <v type="int" >       33 </v>
   <v type="int" >       34 </v>
   <v type="int" >       35 </v>
   <v type="int" >       36 </v>
   <v type="int" >       37 </v>
   <v type="int" >       38 </v>
   <v type="int" >       39 </v>
   <v type="int" >       40 </v>
   <v type="int" >       41 </v>
   <v type="int" >       42 </v>
   <v type="int" >       43 </v>
   <v type="int" >       44 </v>
   <v type="int" >       45 </v>
   <v type="int" >       46 </v>
   <v type="int" >       47 </v>
   <v type="int" >       48 </v>
   <v type="int" >       49 </v>
   <v type="int" >       50 </v>
   <v type="int" >       51 </v>
   <v type="int" >       52 </v>
   <v type="int" >       53 </v>
   <v type="int" >       54 </v>
   <v type="int" >       55 </v>
   <v type="int" >       56 </v>
   <v type="int" >       57 </v>
   <v type="int" >       58 </v>
   <v type="int" >       59 </v>
   <v type="int" >       60 </v>
   <v type="int" >       61 </v>
   <v type="int" >       62 </v>
   <v type="int" >       63 </v>
   <v type="int" >       64 </v>
  </varray>
 </primitive_cell>
 <kpoints>
  <generation param="Gamma">
   <v type="int" name="divisions">       3        3        3 </v>
   <v name="usershift">      0.00000000       0.00000000       0.00000000 </v>
   <v name="genvec1">      0.33333333       0.00000000       0.00000000 </v>
   <v name="genvec2">      0.00000000       0.33333333       0.00000000 </v>
   <v name="genvec3">      0.00000000       0.00000000       0.33333333 </v>
   <v name="shift">      0.00000000       0.00000000       0.00000000 </v>
  </generation>
  <varray name="kpointlist" >
   <v>       0.00000000       0.00000000       0.00000000 </v>
   <v>       0.33333333       0.00000000       0.00000000 </v>
   <v>       0.00000000       0.33333333       0.00000000 </v>
   <v>       0.33333333       0.33333333       0.00000000 </v>
   <v>       0.00000000       0.33333333       0.33333333 </v>
   <v>       0.00000000      -0.33333333       0.33333333 </v>
   <v>       0.33333333       0.33333333       0.33333333 </v>
   <v>      -0.33333333      -0.33333333       0.33333333 </v>
  </varray>
  <varray name="weights" >
   <v>       0.03703704 </v>
   <v>       0.07407407 </v>
   <v>       0.14814815 </v>
   <v>       0.29629630 </v>
   <v>       0.07407407 </v>
   <v>       0.07407407 </v>
   <v>       0.14814815 </v>
   <v>       0.14814815 </v>
  </varray>
 </kpoints>
 <parameters>
  <separator name="general" >
   <i type="string" name="SYSTEM">unknown system</i>
   <i type="logical" name="LCOMPAT"> F  </i>
  </separator>
  <separator name="electronic" >
   <i type="string" name="PREC">normal</i>
   <i name="ENMAX">    360.00000000</i>
   <i name="ENAUG">    456.10600000</i>
   <i name="EDIFF">      0.00010000</i>
   <i type="int" name="IALGO">    38</i>
   <i type="int" name="IWAVPR">    10</i>
   <i type="int" name="NBANDS">   384</i>
   <i type="int" name="NBANDSLOW">    -1</i>
   <i type="int" name="NBANDSHIGH">    -1</i>
   <i name="NELECT">    576.00000000</i>
   <i type="int" name="TURBO">     0</i>
   <i type="int" name="IRESTART">     0</i>
   <i type="int" name="NREBOOT">     0</i>
   <i type="int" name="NMIN">     0</i>
   <i name="EREF">      0.00000000</i>
   <separator name="electronic smearing" >
    <i type="int" name="ISMEAR">     0</i>
    <i name="SIGMA">      0.05000000</i>
    <i name="KSPACING">      0.50000000</i>
    <i type="logical" name="KGAMMA"> T  </i>
    <i type="logical" name="KBLOWUP"> T  </i>
   </separator>
   <separator name="electronic projectors" >
    <i type="logical" name="LREAL"> F  </i>
    <v name="ROPT">      0.00000000      0.00000000</v>
    <i type="int" name="LMAXPAW">  -100</i>
    <i type="int" name="LMAXMIX">     2</i>
    <i type="logical" name="NLSPLINE"> F  </i>
   </separator>
   <separator name="electronic startup" >
    <i type="int" name="ISTART">     0</i>
    <i type="int" name="ICHARG">     2</i>
    <i type="int" name="INIWAV">     1</i>
   </separator>
   <separator name="electronic spin" >
    <i type="int" name="ISPIN">     1</i>
    <i type="logical" name="LNONCOLLINEAR"> F  </i>
    <v name="MAGMOM">      1.00000000      1.00000000      1.00000000      1.00000000      1.00000000      1.00000000      1.00000000      1.00000000      1.00000000      1.00000000      1.00000000      1.00000000      1.00000000      1.00000000      1.00000000      1.00000000      1.00000000      1.00000000      1.00000000      1.00000000
      1.00000000      1.00000000      1.00000000      1.00000000      1.00000000      1.00000000      1.00000000      1.00000000      1.00000000      1.00000000      1.00000000      1.00000000      1.00000000      1.00000000      1.00000000      1.00000000      1.00000000      1.00000000      1.00000000      1.00000000
      1.00000000      1.00000000      1.00000000      1.00000000      1.00000000      1.00000000      1.00000000      1.00000000      1.00000000      1.00000000      1.00000000      1.00000000      1.00000000      1.00000000      1.00000000      1.00000000      1.00000000      1.00000000      1.00000000      1.00000000
      1.00000000      1.00000000      1.00000000      1.00000000</v>
    <i name="NUPDOWN">     -1.00000000</i>
    <i type="logical" name="LSORBIT"> F  </i>
    <v name="SAXIS">      0.00000000      0.00000000      1.00000000</v>
    <i type="logical" name="LSPIRAL"> F  </i>
    <v name="QSPIRAL">      0.00000000      0.00000000      0.00000000</v>
    <i type="logical" name="LZEROZ"> F  </i>
   </separator>
   <separator name="electronic exchange-correlation" >
    <i type="logical" name="LASPH"> F  </i>
    <i type="logical" name="LMETAGGA"> F  </i>
   </separator>
   <separator name="electronic convergence" >
    <i type="int" name="NELM">    60</i>
    <i type="int" name="NELMDL">    -5</i>
    <i type="int" name="NELMIN">     2</i>
    <i name="ENINI">    360.00000000</i>
    <separator name="electronic convergence detail" >
     <i type="logical" name="LDIAG"> T  </i>
     <i type="logical" name="LSUBROT"> F  </i>
     <i name="WEIMIN">      0.00000000</i>
     <i name="EBREAK">      0.00000007</i>
     <i name="DEPER">      0.30000000</i>
     <i type="int" name="NRMM">     4</i>
     <i name="TIME">      0.40000000</i>
    </separator>
   </separator>
   <separator name="electronic mixer" >
    <i name="AMIX">      0.40000000</i>
    <i name="BMIX">      1.00000000</i>
    <i name="AMIN">      0.10000000</i>
    <i name="AMIX_MAG">      1.60000000</i>
    <i name="BMIX_MAG">      1.00000000</i>
    <separator name="electronic mixer details" >
     <i type="int" name="IMIX">     4</i>
     <i type="logical" name="MIXFIRST"> F  </i>
     <i type="int" name="MAXMIX">   -45</i>
     <i name="WC">    100.00000000</i>
     <i type="int" name="INIMIX">     1</i>
     <i type="int" name="MIXPRE">     1</i>
     <i type="int" name="MREMOVE">     5</i>
    </separator>
   </separator>
   <separator name="electronic dipolcorrection" >
    <i type="logical" name="LDIPOL"> F  </i>
    <i type="logical" name="LMONO"> F  </i>
    <i type="int" name="IDIPOL">     0</i>
    <i name="EPSILON">      1.00000000</i>
    <v name="DIPOL">   -100.00000000   -100.00000000   -100.00000000</v>
    <i name="EFIELD">      0.00000000</i>
   </separator>
  </separator>
  <separator name="grids" >
   <i type="int" name="NGX">    64</i>
   <i type="int" name="NGY">    64</i>
   <i type="int" name="NGZ">    64</i>
   <i type="int" name="NGXF">   128</i>
   <i type="int" name="NGYF">   128</i>
   <i type="int" name="NGZF">   128</i>
   <i type="logical" name="ADDGRID"> F  </i>
  </separator>
  <separator name="ionic" >
   <i type="int" name="NSW">     0</i>
   <i type="int" name="IBRION">    -1</i>
   <i type="int" name="MDALGO">     0</i>
   <i type="int" name="ISIF">     2</i>
   <i name="PSTRESS">      0.00000000</i>
   <i name="EDIFFG">      0.00100000</i>
   <i type="int" name="NFREE">     0</i>
   <i name="POTIM">      0.50000000</i>
   <i name="SMASS">     -3.00000000</i>
   <i name="SCALEE">      1.00000000</i>
  </separator>
  <separator name="ionic md" >
   <i name="TEBEG">      0.00010000</i>
   <i name="TEEND">      0.00010000</i>
   <i type="int" name="NBLOCK">     1</i>
   <i type="int" name="KBLOCK">     1</i>
   <i type="int" name="NPACO">   256</i>
   <i name="APACO">     10.00000000</i>
  </separator>
  <separator name="symmetry" >
   <i type="int" name="ISYM">     2</i>
   <i name="SYMPREC">      0.00001000</i>
  </separator>
  <separator name="dos" >
   <i type="int" name="LORBIT">     0</i>
   <v name="RWIGS">     -1.00000000     -1.00000000</v>
   <i type="int" name="NEDOS">   301</i>
   <i name="EMIN">     10.00000000</i>
   <i name="EMAX">    -10.00000000</i>
   <i name="EFERMI">      0.00000000</i>
  </separator>
  <separator name="writing" >
   <i type="int" name="NWRITE">     2</i>
   <i type="logical" name="LWAVE"> T  </i>
   <i type="logical" name="LDOWNSAMPLE"> F  </i>
   <i type="logical" name="LCHARG"> T  </i>
   <i type="logical" name="LPARD"> F  </i>
   <i type="logical" name="LVTOT"> F  </i>
   <i type="logical" name="LVHAR"> F  </i>
   <i type="logical" name="LELF"> F  </i>
   <i type="logical" name="LOPTICS"> F  </i>
   <v name="STM">      0.00000000      0.00000000      0.00000000      0.00000000      0.00000000      0.00000000      0.00000000</v>
  </separator>
  <separator name="performance" >
   <i type="int" name="NPAR">    48</i>
   <i type="int" name="NSIM">     4</i>
   <i type="int" name="NBLK">    -1</i>
   <i type="logical" name="LPLANE"> T  </i>
   <i type="logical" name="LSCALAPACK"> T  </i>
   <i type="logical" name="LSCAAWARE"> F  </i>
   <i type="logical" name="LSCALU"> F  </i>
   <i type="logical" name="LASYNC"> F  </i>
   <i type="logical" name="LORBITALREAL"> F  </i>
  </separator>
  <separator name="miscellaneous" >
   <i type="int" name="IDIOT">     3</i>
   <i type="int" name="PHON_NSTRUCT">    -1</i>
   <i type="logical" name="LMUSIC"> F  </i>
   <v name="POMASS">    112.41100000    127.60000000</v>
   <v name="DARWINR">      0.00000000      0.00000000</v>
   <v name="DARWINV">      1.00000000      1.00000000</v>
   <i type="logical" name="LCORR"> T  </i>
  </separator>
  <i type="logical" name="GGA_COMPAT"> T  </i>
  <i type="logical" name="LBERRY"> F  </i>
  <i type="int" name="ICORELEVEL">     0</i>
  <i type="logical" name="LDAU"> F  </i>
  <i type="int" name="I_CONSTRAINED_M">     0</i>
  <separator name="electronic exchange-correlation" >
   <i type="string" name="GGA">--</i>
   <i type="int" name="VOSKOWN">     0</i>
   <i type="logical" name="LHFCALC"> F  </i>
   <i type="string" name="PRECFOCK"></i>
   <i type="logical" name="LSYMGRAD"> F  </i>
   <i type="logical" name="LHFONE"> F  </i>
   <i type="logical" name="LRHFCALC"> F  </i>
   <i type="logical" name="LTHOMAS"> F  </i>
   <i type="logical" name="LMODELHF"> F  </i>
   <i type="logical" name="LFOCKACE"> F  </i>
   <i name="ENCUT4O">     -1.00000000</i>
   <i type="int" name="EXXOEP">     0</i>
   <i type="int" name="FOURORBIT">     0</i>
   <i name="AEXX">      0.00000000</i>
   <i name="HFALPHA">      0.00000000</i>
   <i name="MCALPHA">      0.00000000</i>
   <i name="ALDAX">      1.00000000</i>
   <i name="AGGAX">      1.00000000</i>
   <i name="ALDAC">      1.00000000</i>
   <i name="AGGAC">      1.00000000</i>
   <i type="int" name="NKREDX">     1</i>
   <i type="int" name="NKREDY">     1</i>
   <i type="int" name="NKREDZ">     1</i>
   <i type="logical" name="SHIFTRED"> F  </i>
   <i type="logical" name="ODDONLY"> F  </i>
   <i type="logical" name="EVENONLY"> F  </i>
   <i type="int" name="LMAXFOCK">     0</i>
   <i type="int" name="NMAXFOCKAE">     0</i>
   <i type="logical" name="LFOCKAEDFT"> F  </i>
   <i name="HFSCREEN">      0.00000000</i>
   <i name="HFSCREENC">      0.00000000</i>
   <i type="int" name="NBANDSGWLOW">     0</i>
  </separator>
  <separator name="vdW DFT" >
   <i type="logical" name="LUSE_VDW"> F  </i>
   <i name="Zab_VDW">     -0.84910000</i>
   <i name="PARAM1">      0.12340000</i>
   <i name="PARAM2">      1.00000000</i>
   <i name="PARAM3">      0.00000000</i>
  </separator>
  <separator name="model GW" >
   <i type="int" name="MODEL_GW">     0</i>
   <i name="MODEL_EPS0">     21.84834636</i>
   <i name="MODEL_ALPHA">      1.00000000</i>
  </separator>
  <separator name="linear response parameters" >
   <i type="logical" name="LEPSILON"> F  </i>
   <i type="logical" name="LRPA"> F  </i>
   <i type="logical" name="LNABLA"> F  </i>
   <i type="logical" name="LVEL"> F  </i>
   <i name="CSHIFT">      0.10000000</i>
   <i name="OMEGAMAX">     -1.00000000</i>
   <i name="DEG_THRESHOLD">      0.00200000</i>
   <i name="RTIME">     -0.10000000</i>
   <i name="WPLASMAI">      0.00000000</i>
   <v name="DFIELD">      0.00000000      0.00000000      0.00000000</v>
   <v name="WPLASMA">      0.00000000      0.00000000      0.00000000      0.00000000      0.00000000      0.00000000      0.00000000      0.00000000      0.00000000</v>
  </separator>
  <separator name="orbital magnetization" >
   <i type="logical" name="NUCIND"> F  </i>
   <v name="MAGPOS">      0.00000000      0.00000000      0.00000000</v>
   <i type="logical" name="LNICSALL"> T  </i>
   <i type="logical" name="ORBITALMAG"> F  </i>
   <i type="logical" name="LMAGBLOCH"> F  </i>
   <i type="logical" name="LCHIMAG"> F  </i>
   <i type="logical" name="LGAUGE"> T  </i>
   <i type="int" name="MAGATOM">     0</i>
   <v name="MAGDIPOL">      0.00000000      0.00000000      0.00000000</v>
   <v name="AVECCONST">      0.00000000      0.00000000      0.00000000</v>
  </separator>
  <separator name="response functions" >
   <i type="logical" name="LFINITE_TEMPERATURE"> F  </i>
   <i type="logical" name="LADDER"> F  </i>
   <i type="logical" name="LRPAFORCE"> F  </i>
   <i type="logical" name="LFXC"> F  </i>
   <i type="logical" name="LHARTREE"> T  </i>
   <i type="int" name="IBSE">     0</i>
   <v type="int" name="KPOINT">    -1     0     0     0</v>
   <i type="logical" name="LTCTC"> F  </i>
   <i type="logical" name="LTCTE"> F  </i>
   <i type="logical" name="LTETE"> F  </i>
   <i type="logical" name="LTRIPLET"> F  </i>
   <i type="logical" name="LFXCEPS"> F  </i>
   <i type="logical" name="LFXHEG"> F  </i>
   <i type="int" name="NATURALO">     2</i>
   <i type="logical" name="LHOLEGF"> F  </i>
   <i type="logical" name="L2ORDER"> F  </i>
   <i type="logical" name="LDMP1"> F  </i>
   <i type="logical" name="LMP2LT"> F  </i>
   <i type="logical" name="LSMP2LT"> F  </i>
   <i type="logical" name="LGWLF"> F  </i>
   <i name="ENCUTGW">     -2.00000000</i>
   <i name="ENCUTGWSOFT">     -2.00000000</i>
   <i name="ENCUTLF">     -1.00000000</i>
   <i type="logical" name="LESF_SPLINES"> F  </i>
   <i type="int" name="LMAXMP2">    -1</i>
   <i name="SCISSOR">      0.00000000</i>
   <i type="int" name="NOMEGA">     0</i>
   <i type="int" name="NOMEGAR">     0</i>
   <i type="int" name="NBANDSGW">    -1</i>
   <i type="int" name="NBANDSO">    -1</i>
   <i type="int" name="NBANDSV">    -1</i>
   <i type="int" name="NELMGW">     1</i>
   <i type="int" name="NELMHF">     1</i>
   <i type="int" name="DIM">     3</i>
   <i type="int" name="IESPILON">     4</i>
   <i type="int" name="ANTIRES">     0</i>
   <i name="OMEGAMAX">    -30.00000000</i>
   <i name="OMEGAMIN">    -30.00000000</i>
   <i name="OMEGATL">   -200.00000000</i>
   <i type="int" name="OMEGAGRID">     0</i>
   <i name="CSHIFT">     -0.10000000</i>
   <i type="logical" name="LSELFENERGY"> F  </i>
   <i type="logical" name="LSPECTRAL"> F  </i>
   <i type="logical" name="LSPECTRALGW"> F  </i>
   <i type="logical" name="LSINGLES"> F  </i>
   <i type="logical" name="LFERMIGW"> F  </i>
   <i type="logical" name="ODDONLYGW"> F  </i>
   <i type="logical" name="EVENONLYGW"> F  </i>
   <i type="int" name="NKREDLFX">     1</i>
   <i type="int" name="NKREDLFY">     1</i>
   <i type="int" name="NKREDLFZ">     1</i>
   <i type="int" name="MAXMEM">  2800</i>
   <i type="int" name="TELESCOPE">     0</i>
   <i type="int" name="NTAUPAR">    -1</i>
   <i type="int" name="NOMEGAPAR">    -1</i>
   <i name="DAMP_NEWTON">      0.80000001</i>
   <i name="LAMBDA">      1.00000000</i>
  </separator>
  <separator name="External order field" >
   <i name="OFIELD_KAPPA">      0.00000000</i>
   <v name="OFIELD_K">      0.00000000      0.00000000      0.00000000</v>
   <i name="OFIELD_Q6_NEAR">      0.00000000</i>
   <i name="OFIELD_Q6_FAR">      0.00000000</i>
   <i name="OFIELD_A">      0.00000000</i>
  </separator>
  <separator name="optional k-points parameters" >
   <i type="int" name="KPOINTS_OPT_MODE">     1</i>
   <i type="logical" name="LKPOINTS_OPT"> F  </i>
  </separator>
 </parameters>
 <atominfo>
  <atoms>      64 </atoms>
  <types>       2 </types>
  <array name="atoms" >
   <dimension dim="1">ion</dimension>
   <field type="string">element</field>
   <field type="int">atomtype</field>
   <set>
    <rc><c>Cd</c><c>   1</c></rc>
    <rc><c>Cd</c><c>   1</c></rc>
    <rc><c>Cd</c><c>   1</c></rc>
    <rc><c>Cd</c><c>   1</c></rc>
    <rc><c>Cd</c><c>   1</c></rc>
    <rc><c>Cd</c><c>   1</c></rc>
    <rc><c>Cd</c><c>   1</c></rc>
    <rc><c>Cd</c><c>   1</c></rc>
    <rc><c>Cd</c><c>   1</c></rc>
    <rc><c>Cd</c><c>   1</c></rc>
    <rc><c>Cd</c><c>   1</c></rc>
    <rc><c>Cd</c><c>   1</c></rc>
    <rc><c>Cd</c><c>   1</c></rc>
    <rc><c>Cd</c><c>   1</c></rc>
    <rc><c>Cd</c><c>   1</c></rc>
    <rc><c>Cd</c><c>   1</c></rc>
    <rc><c>Cd</c><c>   1</c></rc>
    <rc><c>Cd</c><c>   1</c></rc>
    <rc><c>Cd</c><c>   1</c></rc>
    <rc><c>Cd</c><c>   1</c></rc>
    <rc><c>Cd</c><c>   1</c></rc>
    <rc><c>Cd</c><c>   1</c></rc>
    <rc><c>Cd</c><c>   1</c></rc>
    <rc><c>Cd</c><c>   1</c></rc>
    <rc><c>Cd</c><c>   1</c></rc>
    <rc><c>Cd</c><c>   1</c></rc>
    <rc><c>Cd</c><c>   1</c></rc>
    <rc><c>Cd</c><c>   1</c></rc>
    <rc><c>Cd</c><c>   1</c></rc>
    <rc><c>Cd</c><c>   1</c></rc>
    <rc><c>Cd</c><c>   1</c></rc>
    <rc><c>Cd</c><c>   1</c></rc>
    <rc><c>Te</c><c>   2</c></rc>
    <rc><c>Te</c><c>   2</c></rc>
    <rc><c>Te</c><c>   2</c></rc>
    <rc><c>Te</c><c>   2</c></rc>
    <rc><c>Te</c><c>   2</c></rc>
    <rc><c>Te</c><c>   2</c></rc>
    <rc><c>Te</c><c>   2</c></rc>
    <rc><c>Te</c><c>   2</c></rc>
    <rc><c>Te</c><c>   2</c></rc>
    <rc><c>Te</c><c>   2</c></rc>
    <rc><c>Te</c><c>   2</c></rc>
    <rc><c>Te</c><c>   2</c></rc>
    <rc><c>Te</c><c>   2</c></rc>
    <rc><c>Te</c><c>   2</c></rc>
    <rc><c>Te</c><c>   2</c></rc>
    <rc><c>Te</c><c>   2</c></rc>
    <rc><c>Te</c><c>   2</c></rc>
    <rc><c>Te</c><c>   2</c></rc>
    <rc><c>Te</c><c>   2</c></rc>
    <rc><c>Te</c><c>   2</c></rc>
    <rc><c>Te</c><c>   2</c></rc>
    <rc><c>Te</c><c>   2</c></rc>
    <rc><c>Te</c><c>   2</c></rc>
    <rc><c>Te</c><c>   2</c></rc>
    <rc><c>Te</c><c>   2</c></rc>
    <rc><c>Te</c><c>   2</c></rc>
    <rc><c>Te</c><c>   2</c></rc>
    <rc><c>Te</c><c>   2</c></rc>
    <rc><c>Te</c><c>   2</c></rc>
    <rc><c>Te</c><c>   2</c></rc>
    <rc><c>Te</c><c>   2</c></rc>
    <rc><c>Te</c><c>   2</c></rc>
   </set>
  </array>
  <array name="atomtypes" >
   <dimension dim="1">type</dimension>
   <field type="int">atomspertype</field>
   <field type="string">element</field>
   <field>mass</field>
   <field>valence</field>
   <field type="string">pseudopotential</field>
   <set>
    <rc><c>  32</c><c>Cd</c><c>    112.41100000</c><c>     12.00000000</c><c>  PAW_PBE Cd 06Sep2000                  </c></rc>
    <rc><c>  32</c><c>Te</c><c>    127.60000000</c><c>      6.00000000</c><c>  PAW_PBE Te 08Apr2002                  </c></rc>
   </set>
  </array>
 </atominfo>
 <structure name="initialpos" >
  <crystal>
   <varray name="basis" >
    <v>      13.25813485       0.00000000       0.00000000 </v>
    <v>       0.00000000      13.25813485       0.00000000 </v>
    <v>       0.00000000       0.00000000      13.25813485 </v>
   </varray>
   <i name="volume">   2330.49027860 </i>
   <varray name="rec_basis" >
    <v>       0.07542539       0.00000000       0.00000000 </v>
    <v>       0.00000000       0.07542539       0.00000000 </v>
    <v>       0.00000000       0.00000000       0.07542539 </v>
   </varray>
  </crystal>
  <varray name="positions" >
   <v>       0.00075425       0.00000000       0.00000000 </v>
   <v>       0.50000000       0.00000000       0.00000000 </v>
   <v>       0.00000000       0.50000000       0.00000000 </v>
   <v>       0.50000000       0.50000000       0.00000000 </v>
   <v>       0.00000000       0.00000000       0.50000000 </v>
   <v>       0.50000000       0.00000000       0.50000000 </v>
   <v>       0.00000000       0.50000000       0.50000000 </v>
   <v>       0.50000000       0.50000000       0.50000000 </v>
   <v>       0.00000000       0.25000000       0.25000000 </v>
   <v>       0.50000000       0.25000000       0.25000000 </v>
   <v>       0.00000000       0.75000000       0.25000000 </v>
   <v>       0.50000000       0.75000000       0.25000000 </v>
   <v>       0.00000000       0.25000000       0.75000000 </v>
   <v>       0.50000000       0.25000000       0.75000000 </v>
   <v>       0.00000000       0.75000000       0.75000000 </v>
   <v>       0.50000000       0.75000000       0.75000000 </v>
   <v>       0.25000000       0.00000000       0.25000000 </v>
   <v>       0.75000000       0.00000000       0.25000000 </v>
   <v>       0.25000000       0.50000000       0.25000000 </v>
   <v>       0.75000000       0.50000000       0.25000000 </v>
   <v>       0.25000000       0.00000000       0.75000000 </v>
   <v>       0.75000000       0.00000000       0.75000000 </v>
   <v>       0.25000000       0.50000000       0.75000000 </v>
   <v>       0.75000000       0.50000000       0.75000000 </v>
   <v>       0.25000000       0.25000000       0.00000000 </v>
   <v>       0.75000000       0.25000000       0.00000000 </v>
   <v>       0.25000000       0.75000000       0.00000000 </v>
   <v>       0.75000000       0.75000000       0.00000000 </v>
   <v>       0.25000000       0.25000000       0.50000000 </v>
   <v>       0.75000000       0.25000000       0.50000000 </v>
   <v>       0.25000000       0.75000000       0.50000000 </v>
   <v>       0.75000000       0.75000000       0.50000000 </v>
   <v>       0.12500000       0.12500000       0.12500000 </v>
   <v>       0.62500000       0.12500000       0.12500000 </v>
   <v>       0.12500000       0.62500000       0.12500000 </v>
   <v>       0.62500000       0.62500000       0.12500000 </v>
   <v>       0.12500000       0.12500000       0.62500000 </v>
   <v>       0.62500000       0.12500000       0.62500000 </v>
   <v>       0.12500000       0.62500000       0.62500000 </v>
   <v>       0.62500000       0.62500000       0.62500000 </v>
   <v>       0.12500000       0.37500000       0.37500000 </v>
   <v>       0.62500000       0.37500000       0.37500000 </v>
   <v>       0.12500000       0.87500000       0.37500000 </v>
   <v>       0.62500000       0.87500000       0.37500000 </v>
   <v>       0.12500000       0.37500000       0.87500000 </v>
   <v>       0.62500000       0.37500000       0.87500000 </v>
   <v>       0.12500000       0.87500000       0.87500000 </v>
   <v>       0.62500000       0.87500000       0.87500000 </v>
   <v>       0.37500000       0.12500000       0.37500000 </v>
   <v>       0.87500000       0.12500000       0.37500000 </v>
   <v>       0.37500000       0.62500000       0.37500000 </v>
   <v>       0.87500000       0.62500000       0.37500000 </v>
   <v>       0.37500000       0.12500000       0.87500000 </v>
   <v>       0.87500000       0.12500000       0.87500000 </v>
   <v>       0.37500000       0.62500000       0.87500000 </v>
   <v>       0.87500000       0.62500000       0.87500000 </v>
   <v>       0.37500000       0.37500000       0.12500000 </v>
   <v>       0.87500000       0.37500000       0.12500000 </v>
   <v>       0.37500000       0.87500000       0.12500000 </v>
   <v>       0.87500000       0.87500000       0.12500000 </v>
   <v>       0.37500000       0.37500000       0.62500000 </v>
   <v>       0.87500000       0.37500000       0.62500000 </v>
   <v>       0.37500000       0.87500000       0.62500000 </v>
   <v>       0.87500000       0.87500000       0.62500000 </v>
  </varray>
 </structure>
 <calculation>
  <scstep>
   <time name="dav">   33.29   33.52</time>
   <time name="total">   33.33   33.56</time>
   <energy>
    <i name="alphaZ">   1501.49456034 </i>
    <i name="ewald"> -32696.37666145 </i>
    <i name="hartreedc"> -16734.45039548 </i>
    <i name="XCdc">   -731.85744457 </i>
    <i name="pawpsdc">  44941.76741987 </i>
    <i name="pawaedc"> -42629.27134123 </i>
    <i name="eentropy">     -0.03366987 </i>
    <i name="bandstr">    835.46814349 </i>
    <i name="atom">  48525.04422734 </i>
    <i name="e_fr_energy">   3011.78483844 </i>
    <i name="e_wo_entrp">   3011.81850831 </i>
    <i name="e_0_energy">   3011.80167338 </i>
   </energy>
  </scstep>
  <scstep>
   <time name="dav">   36.93   37.23</time>
   <time name="total">   36.93   37.23</time>
   <energy>
    <i name="e_fr_energy">      7.81029572 </i>
    <i name="e_wo_entrp">      7.81029572 </i>
    <i name="e_0_energy">      7.81029572 </i>
   </energy>
  </scstep>
  <scstep>
   <time name="dav">   38.42   38.72</time>
   <time name="total">   38.42   38.72</time>
   <energy>
    <i name="e_fr_energy">   -158.77154117 </i>
    <i name="e_wo_entrp">   -158.77154117 </i>
    <i name="e_0_energy">   -158.77154117 </i>
   </energy>
  </scstep>
  <scstep>
   <time name="dav">   38.78   39.08</time>
   <time name="total">   38.78   39.08</time>
   <energy>
    <i name="e_fr_energy">   -161.44967769 </i>
    <i name="e_wo_entrp">   -161.44967769 </i>
    <i name="e_0_energy">   -161.44967769 </i>
   </energy>
  </scstep>
  <scstep>
   <time name="dav">   36.81   37.08</time>
   <time name="total">   37.06   37.33</time>
   <energy>
    <i name="e_fr_energy">   -161.48576082 </i>
    <i name="e_wo_entrp">   -161.48576082 </i>
    <i name="e_0_energy">   -161.48576082 </i>
   </energy>
  </scstep>
  <scstep>
   <time name="dav">   36.82   37.06</time>
   <time name="total">   37.11   37.38</time>
   <energy>
    <i name="e_fr_energy">   -154.30829042 </i>
    <i name="e_wo_entrp">   -154.30829042 </i>
    <i name="e_0_energy">   -154.30829042 </i>
   </energy>
  </scstep>
  <scstep>
   <time name="dav">   35.53   35.81</time>
   <time name="total">   35.81   36.12</time>
   <energy>
    <i name="e_fr_energy">   -153.90603971 </i>
    <i name="e_wo_entrp">   -153.90603971 </i>
    <i name="e_0_energy">   -153.90603971 </i>
   </energy>
  </scstep>
  <scstep>
   <time name="dav">   36.80   37.04</time>
   <time name="total">   37.08   37.36</time>
   <energy>
    <i name="e_fr_energy">   -153.89702261 </i>
    <i name="e_wo_entrp">   -153.89702261 </i>
    <i name="e_0_energy">   -153.89702261 </i>
   </energy>
  </scstep>
  <scstep>
   <time name="dav">   35.82   36.06</time>
   <time name="total">   36.10   36.37</time>
   <energy>
    <i name="e_fr_energy">   -153.90285512 </i>
    <i name="e_wo_entrp">   -153.90285512 </i>
    <i name="e_0_energy">   -153.90285512 </i>
   </energy>
  </scstep>
  <scstep>
   <time name="dav">   38.31   38.58</time>
   <time name="total">   38.59   38.89</time>
   <energy>
    <i name="e_fr_energy">   -153.90004160 </i>
    <i name="e_wo_entrp">   -153.90004160 </i>
    <i name="e_0_energy">   -153.90004160 </i>
   </energy>
  </scstep>
  <scstep>
   <time name="dav">   35.97   36.21</time>
   <time name="total">   36.25   36.52</time>
   <energy>
    <i name="e_fr_energy">   -153.90069875 </i>
    <i name="e_wo_entrp">   -153.90069875 </i>
    <i name="e_0_energy">   -153.90069875 </i>
   </energy>
  </scstep>
  <scstep>
   <time name="dav">   34.38   34.61</time>
   <time name="total">   34.67   34.92</time>
   <energy>
    <i name="e_fr_energy">   -153.90088585 </i>
    <i name="e_wo_entrp">   -153.90088585 </i>
    <i name="e_0_energy">   -153.90088585 </i>
   </energy>
  </scstep>
  <scstep>
   <time name="dav">   30.08   30.28</time>
   <time name="total">   30.36   30.58</time>
   <energy>
    <i name="e_fr_energy">   -153.90104716 </i>
    <i name="e_wo_entrp">   -153.90104716 </i>
    <i name="e_0_energy">   -153.90104716 </i>
   </energy>
  </scstep>
  <scstep>
   <time name="dav">   26.96   27.14</time>
   <time name="total">   26.99   27.19</time>
   <energy>
    <i name="alphaZ">   1501.49456034 </i>
    <i name="ewald"> -32696.37666145 </i>
    <i name="hartreedc"> -16529.07237736 </i>
    <i name="XCdc">   -729.66523109 </i>
    <i name="pawpsdc">  54096.24171487 </i>
    <i name="pawaedc"> -51765.03799939 </i>
    <i name="eentropy">     -0.00000000 </i>
    <i name="bandstr">  -2556.52929021 </i>
    <i name="atom">  48525.04422734 </i>
    <i name="e_fr_energy">   -153.90105695 </i>
    <i name="e_wo_entrp">   -153.90105695 </i>
    <i name="e_0_energy">   -153.90105695 </i>
   </energy>
  </scstep>
  <structure>
   <crystal>
    <varray name="basis" >
     <v>      13.25813485       0.00000000       0.00000000 </v>
     <v>       0.00000000      13.25813485       0.00000000 </v>
     <v>       0.00000000       0.00000000      13.25813485 </v>
    </varray>
    <i name="volume">   2330.49027860 </i>
    <varray name="rec_basis" >
     <v>       0.07542539       0.00000000       0.00000000 </v>
     <v>       0.00000000       0.07542539       0.00000000 </v>
     <v>       0.00000000       0.00000000       0.07542539 </v>
    </varray>
   </crystal>
   <varray name="positions" >
    <v>       0.00075425       0.00000000       0.00000000 </v>
    <v>       0.50000000       0.00000000       0.00000000 </v>
    <v>       0.00000000       0.50000000       0.00000000 </v>
    <v>       0.50000000       0.50000000       0.00000000 </v>
    <v>       0.00000000       0.00000000       0.50000000 </v>
    <v>       0.50000000       0.00000000       0.50000000 </v>
    <v>       0.00000000       0.50000000       0.50000000 </v>
    <v>       0.50000000       0.50000000       0.50000000 </v>
    <v>       0.00000000       0.25000000       0.25000000 </v>
    <v>       0.50000000       0.25000000       0.25000000 </v>
    <v>       0.00000000       0.75000000       0.25000000 </v>
    <v>       0.50000000       0.75000000       0.25000000 </v>
    <v>       0.00000000       0.25000000       0.75000000 </v>
    <v>       0.50000000       0.25000000       0.75000000 </v>
    <v>       0.00000000       0.75000000       0.75000000 </v>
    <v>       0.50000000       0.75000000       0.75000000 </v>
    <v>       0.25000000       0.00000000       0.25000000 </v>
    <v>       0.75000000       0.00000000       0.25000000 </v>
    <v>       0.25000000       0.50000000       0.25000000 </v>
    <v>       0.75000000       0.50000000       0.25000000 </v>
    <v>       0.25000000       0.00000000       0.75000000 </v>
    <v>       0.75000000       0.00000000       0.75000000 </v>
    <v>       0.25000000       0.50000000       0.75000000 </v>
    <v>       0.75000000       0.50000000       0.75000000 </v>
    <v>       0.25000000       0.25000000       0.00000000 </v>
    <v>       0.75000000       0.25000000       0.00000000 </v>
    <v>       0.25000000       0.75000000       0.00000000 </v>
    <v>       0.75000000       0.75000000       0.00000000 </v>
    <v>       0.25000000       0.25000000       0.50000000 </v>
    <v>       0.75000000       0.25000000       0.50000000 </v>
    <v>       0.25000000       0.75000000       0.50000000 </v>
    <v>       0.75000000       0.75000000       0.50000000 </v>
    <v>       0.12500000       0.12500000       0.12500000 </v>
    <v>       0.62500000       0.12500000       0.12500000 </v>
    <v>       0.12500000       0.62500000       0.12500000 </v>
    <v>       0.62500000       0.62500000       0.12500000 </v>
    <v>       0.12500000       0.12500000       0.62500000 </v>
    <v>       0.62500000       0.12500000       0.62500000 </v>
    <v>       0.12500000       0.62500000       0.62500000 </v>
    <v>       0.62500000       0.62500000       0.62500000 </v>
    <v>       0.12500000       0.37500000       0.37500000 </v>
    <v>       0.62500000       0.37500000       0.37500000 </v>
    <v>       0.12500000       0.87500000       0.37500000 </v>
    <v>       0.62500000       0.87500000       0.37500000 </v>
    <v>       0.12500000       0.37500000       0.87500000 </v>
    <v>       0.62500000       0.37500000       0.87500000 </v>
    <v>       0.12500000       0.87500000       0.87500000 </v>
    <v>       0.62500000       0.87500000       0.87500000 </v>
    <v>       0.37500000       0.12500000       0.37500000 </v>
    <v>       0.87500000       0.12500000       0.37500000 </v>
    <v>       0.37500000       0.62500000       0.37500000 </v>
    <v>       0.87500000       0.62500000       0.37500000 </v>
    <v>       0.37500000       0.12500000       0.87500000 </v>
    <v>       0.87500000       0.12500000       0.87500000 </v>
    <v>       0.37500000       0.62500000       0.87500000 </v>
    <v>       0.87500000       0.62500000       0.87500000 </v>
    <v>       0.37500000       0.37500000       0.12500000 </v>
    <v>       0.87500000       0.37500000       0.12500000 </v>
    <v>       0.37500000       0.87500000       0.12500000 </v>
    <v>       0.87500000       0.87500000       0.12500000 </v>
    <v>       0.37500000       0.37500000       0.62500000 </v>
    <v>       0.87500000       0.37500000       0.62500000 </v>
    <v>       0.37500000       0.87500000       0.62500000 </v>
    <v>       0.87500000       0.87500000       0.62500000 </v>
   </varray>
  </structure>
  <varray name="forces" >
   <v>      -0.04204164      -0.00000000       0.00000000 </v>
   <v>       0.00082107      -0.00000000       0.00000000 </v>
   <v>      -0.00008259      -0.00000000       0.00000000 </v>
   <v>       0.00052564      -0.00000000       0.00000000 </v>
   <v>      -0.00008259      -0.00000000       0.00000000 </v>
   <v>       0.00052564      -0.00000000       0.00000000 </v>
   <v>      -0.00164330      -0.00000000       0.00000000 </v>
   <v>       0.00028750      -0.00000000       0.00000000 </v>
   <v>      -0.00271353       0.00128088       0.00128088 </v>
   <v>       0.00049341      -0.00022868      -0.00022868 </v>
   <v>      -0.00270859       0.00127658      -0.00127658 </v>
   <v>       0.00049548      -0.00022905       0.00022905 </v>
   <v>      -0.00270859      -0.00127658       0.00127658 </v>
   <v>       0.00049548       0.00022905      -0.00022905 </v>
   <v>      -0.00271353      -0.00128088      -0.00128088 </v>
   <v>       0.00049341       0.00022868       0.00022868 </v>
   <v>       0.00137096      -0.00127638       0.00143279 </v>
   <v>       0.00136534      -0.00128266      -0.00142891 </v>
   <v>       0.00018959       0.00022918      -0.00023315 </v>
   <v>       0.00018813       0.00023024       0.00023220 </v>
   <v>       0.00137096       0.00127638      -0.00143279 </v>
   <v>       0.00136534       0.00128266       0.00142891 </v>
   <v>       0.00018959      -0.00022918       0.00023315 </v>
   <v>       0.00018813      -0.00023024      -0.00023220 </v>
   <v>       0.00137096       0.00143279      -0.00127638 </v>
   <v>       0.00136534      -0.00142891      -0.00128266 </v>
   <v>       0.00137096      -0.00143279       0.00127638 </v>
   <v>       0.00136534       0.00142891       0.00128266 </v>
   <v>       0.00018959      -0.00023315       0.00022918 </v>
   <v>       0.00018813       0.00023220       0.00023024 </v>
   <v>       0.00018959       0.00023315      -0.00022918 </v>
   <v>       0.00018813      -0.00023220      -0.00023024 </v>
   <v>       0.01030214       0.00881270       0.00881270 </v>
   <v>      -0.00057742       0.00028222       0.00028222 </v>
   <v>       0.00037557      -0.00000535      -0.00015870 </v>
   <v>      -0.00053456      -0.00040236      -0.00009304 </v>
   <v>       0.00037557      -0.00015870      -0.00000535 </v>
   <v>      -0.00053456      -0.00009304      -0.00040236 </v>
   <v>       0.00035682       0.00061257       0.00061257 </v>
   <v>      -0.00017343       0.00004870       0.00004870 </v>
   <v>       0.00035682      -0.00061257      -0.00061257 </v>
   <v>      -0.00017343      -0.00004870      -0.00004870 </v>
   <v>       0.00037557       0.00015870       0.00000535 </v>
   <v>      -0.00053456       0.00009304       0.00040236 </v>
   <v>       0.00037557       0.00000535       0.00015870 </v>
   <v>      -0.00053456       0.00040236       0.00009304 </v>
   <v>       0.01030214      -0.00881270      -0.00881270 </v>
   <v>      -0.00057742      -0.00028222      -0.00028222 </v>
   <v>      -0.00053288       0.00009155      -0.00040034 </v>
   <v>       0.00037689       0.00015784      -0.00000517 </v>
   <v>      -0.00017474      -0.00004856       0.00004856 </v>
   <v>       0.00035702      -0.00061134       0.00061134 </v>
   <v>      -0.00057914      -0.00028189       0.00028189 </v>
   <v>       0.01016903      -0.00857750       0.00857750 </v>
   <v>      -0.00053288       0.00040034      -0.00009155 </v>
   <v>       0.00037689       0.00000517      -0.00015784 </v>
   <v>      -0.00053288      -0.00040034       0.00009155 </v>
   <v>       0.00037689      -0.00000517       0.00015784 </v>
   <v>      -0.00057914       0.00028189      -0.00028189 </v>
   <v>       0.01016903       0.00857750      -0.00857750 </v>
   <v>      -0.00017474       0.00004856      -0.00004856 </v>
   <v>       0.00035702       0.00061134      -0.00061134 </v>
   <v>      -0.00053288      -0.00009155       0.00040034 </v>
   <v>       0.00037689      -0.00015784       0.00000517 </v>
  </varray>
  <varray name="stress" >
   <v>      -3.87480592       0.00000000       0.00000000 </v>
   <v>      -0.00000000      -3.87394733       0.03127853 </v>
   <v>       0.00000000       0.03127853      -3.87394733 </v>
  </varray>
  <energy>
   <i name="e_fr_energy">   -153.90105695 </i>
   <i name="e_wo_entrp">   -153.90105695 </i>
   <i name="e_0_energy">   -153.90105695 </i>
  </energy>
  <time name="totalsc">  562.64  567.69</time>
  <eigenvalues>
   <array>
    <dimension dim="1">band</dimension>
    <dimension dim="2">kpoint</dimension>
    <dimension dim="3">spin</dimension>
    <field>eigene</field>
    <field>occ</field>
    <set>
     <set comment="spin 1">
      <set comment="kpoint 1">
       <r>   -9.0537    1.0000 </r>
       <r>   -8.8307    1.0000 </r>
       <r>   -8.8300    1.0000 </r>
       <r>   -8.8290    1.0000 </r>
       <r>   -8.8290    1.0000 </r>
       <r>   -8.8281    1.0000 </r>
       <r>   -8.8274    1.0000 </r>
       <r>   -8.7227    1.0000 </r>
       <r>   -8.7225    1.0000 </r>
       <r>   -8.7194    1.0000 </r>
       <r>   -8.7194    1.0000 </r>
       <r>   -8.7193    1.0000 </r>
       <r>   -8.7193    1.0000 </r>
       <r>   -8.7193    1.0000 </r>
       <r>   -8.7193    1.0000 </r>
       <r>   -8.7191    1.0000 </r>
       <r>   -8.7191    1.0000 </r>
       <r>   -8.7180    1.0000 </r>
       <r>   -8.7179    1.0000 </r>
       <r>   -8.7174    1.0000 </r>
       <r>   -8.7174    1.0000 </r>
       <r>   -8.7149    1.0000 </r>
       <r>   -8.7146    1.0000 </r>
       <r>   -8.6180    1.0000 </r>
       <r>   -8.6157    1.0000 </r>
       <r>   -8.6157    1.0000 </r>
       <r>   -8.6156    1.0000 </r>
       <r>   -8.6155    1.0000 </r>
       <r>   -8.6150    1.0000 </r>
       <r>   -8.6145    1.0000 </r>
       <r>   -8.6143    1.0000 </r>
       <r>   -8.6122    1.0000 </r>
       <r>   -6.3099    1.0000 </r>
       <r>   -6.3098    1.0000 </r>
       <r>   -6.3097    1.0000 </r>
       <r>   -6.2584    1.0000 </r>
       <r>   -6.2582    1.0000 </r>
       <r>   -6.2582    1.0000 </r>
       <r>   -6.2581    1.0000 </r>
       <r>   -6.2581    1.0000 </r>
       <r>   -6.2581    1.0000 </r>
       <r>   -6.2580    1.0000 </r>
       <r>   -6.2579    1.0000 </r>
       <r>   -6.2471    1.0000 </r>
       <r>   -6.2468    1.0000 </r>
       <r>   -6.2466    1.0000 </r>
       <r>   -6.2466    1.0000 </r>
       <r>   -6.2465    1.0000 </r>
       <r>   -6.2465    1.0000 </r>
       <r>   -6.2464    1.0000 </r>
       <r>   -6.2463    1.0000 </r>
       <r>   -6.2463    1.0000 </r>
       <r>   -6.2461    1.0000 </r>
       <r>   -6.2461    1.0000 </r>
       <r>   -6.2460    1.0000 </r>
       <r>   -6.2449    1.0000 </r>
       <r>   -6.2448    1.0000 </r>
       <r>   -6.2446    1.0000 </r>
       <r>   -6.2446    1.0000 </r>
       <r>   -6.2445    1.0000 </r>
       <r>   -6.2444    1.0000 </r>
       <r>   -6.2444    1.0000 </r>
       <r>   -6.2444    1.0000 </r>
       <r>   -6.2443    1.0000 </r>
       <r>   -6.2441    1.0000 </r>
       <r>   -6.2441    1.0000 </r>
       <r>   -6.2439    1.0000 </r>
       <r>   -6.2423    1.0000 </r>
       <r>   -6.2423    1.0000 </r>
       <r>   -6.2421    1.0000 </r>
       <r>   -6.2421    1.0000 </r>
       <r>   -6.2421    1.0000 </r>
       <r>   -6.2421    1.0000 </r>
       <r>   -6.2420    1.0000 </r>
       <r>   -6.2419    1.0000 </r>
       <r>   -6.2419    1.0000 </r>
       <r>   -6.2418    1.0000 </r>
       <r>   -6.2416    1.0000 </r>
       <r>   -6.2415    1.0000 </r>
       <r>   -6.2105    1.0000 </r>
       <r>   -6.2102    1.0000 </r>
       <r>   -6.2102    1.0000 </r>
       <r>   -6.2102    1.0000 </r>
       <r>   -6.2102    1.0000 </r>
       <r>   -6.2099    1.0000 </r>
       <r>   -6.2025    1.0000 </r>
       <r>   -6.2024    1.0000 </r>
       <r>   -6.2024    1.0000 </r>
       <r>   -6.2023    1.0000 </r>
       <r>   -6.2023    1.0000 </r>
       <r>   -6.2022    1.0000 </r>
       <r>   -6.1772    1.0000 </r>
       <r>   -6.1771    1.0000 </r>
       <r>   -6.1771    1.0000 </r>
       <r>   -6.1770    1.0000 </r>
       <r>   -6.1770    1.0000 </r>
       <r>   -6.1769    1.0000 </r>
       <r>   -6.1747    1.0000 </r>
       <r>   -6.1747    1.0000 </r>
       <r>   -6.1747    1.0000 </r>
       <r>   -6.1663    1.0000 </r>
       <r>   -6.1662    1.0000 </r>
       <r>   -6.1661    1.0000 </r>
       <r>   -6.1661    1.0000 </r>
       <r>   -6.1661    1.0000 </r>
       <r>   -6.1659    1.0000 </r>
       <r>   -6.1194    1.0000 </r>
       <r>   -6.1194    1.0000 </r>
       <r>   -6.1192    1.0000 </r>
       <r>   -6.1192    1.0000 </r>
       <r>   -6.1191    1.0000 </r>
       <r>   -6.1190    1.0000 </r>
       <r>   -6.1020    1.0000 </r>
       <r>   -6.1019    1.0000 </r>
       <r>   -6.1019    1.0000 </r>
       <r>   -6.1016    1.0000 </r>
       <r>   -6.1016    1.0000 </r>
       <r>   -6.1015    1.0000 </r>
       <r>   -6.1015    1.0000 </r>
       <r>   -6.1015    1.0000 </r>
       <r>   -6.1015    1.0000 </r>
       <r>   -6.1015    1.0000 </r>
       <r>   -6.1014    1.0000 </r>
       <r>   -6.1014    1.0000 </r>
       <r>   -6.1004    1.0000 </r>
       <r>   -6.1003    1.0000 </r>
       <r>   -6.1003    1.0000 </r>
       <r>   -6.1003    1.0000 </r>
       <r>   -6.1003    1.0000 </r>
       <r>   -6.1002    1.0000 </r>
       <r>   -6.1002    1.0000 </r>
       <r>   -6.1002    1.0000 </r>
       <r>   -6.1001    1.0000 </r>
       <r>   -6.0999    1.0000 </r>
       <r>   -6.0999    1.0000 </r>
       <r>   -6.0998    1.0000 </r>
       <r>   -6.0960    1.0000 </r>
       <r>   -6.0960    1.0000 </r>
       <r>   -6.0942    1.0000 </r>
       <r>   -6.0941    1.0000 </r>
       <r>   -6.0940    1.0000 </r>
       <r>   -6.0940    1.0000 </r>
       <r>   -6.0939    1.0000 </r>
       <r>   -6.0938    1.0000 </r>
       <r>   -6.0886    1.0000 </r>
       <r>   -6.0886    1.0000 </r>
       <r>   -6.0886    1.0000 </r>
       <r>   -6.0885    1.0000 </r>
       <r>   -6.0885    1.0000 </r>
       <r>   -6.0885    1.0000 </r>
       <r>   -6.0885    1.0000 </r>
       <r>   -6.0885    1.0000 </r>
       <r>   -6.0833    1.0000 </r>
       <r>   -6.0832    1.0000 </r>
       <r>   -6.0831    1.0000 </r>
       <r>   -6.0831    1.0000 </r>
       <r>   -6.0829    1.0000 </r>
       <r>   -6.0828    1.0000 </r>
       <r>   -6.0706    1.0000 </r>
       <r>   -6.0706    1.0000 </r>
       <r>   -6.0706    1.0000 </r>
       <r>   -6.0636    1.0000 </r>
       <r>   -6.0635    1.0000 </r>
       <r>   -6.0634    1.0000 </r>
       <r>   -6.0634    1.0000 </r>
       <r>   -6.0633    1.0000 </r>
       <r>   -6.0632    1.0000 </r>
       <r>   -5.8515    1.0000 </r>
       <r>   -5.8515    1.0000 </r>
       <r>   -5.8515    1.0000 </r>
       <r>   -5.8514    1.0000 </r>
       <r>   -5.8513    1.0000 </r>
       <r>   -5.8513    1.0000 </r>
       <r>   -5.8513    1.0000 </r>
       <r>   -5.8512    1.0000 </r>
       <r>   -5.8511    1.0000 </r>
       <r>   -5.8511    1.0000 </r>
       <r>   -5.8511    1.0000 </r>
       <r>   -5.8511    1.0000 </r>
       <r>   -5.7967    1.0000 </r>
       <r>   -5.7967    1.0000 </r>
       <r>   -5.7965    1.0000 </r>
       <r>   -5.7964    1.0000 </r>
       <r>   -5.6790    1.0000 </r>
       <r>   -5.6789    1.0000 </r>
       <r>   -5.6788    1.0000 </r>
       <r>   -5.6162    1.0000 </r>
       <r>   -5.6161    1.0000 </r>
       <r>   -5.6161    1.0000 </r>
       <r>   -5.6161    1.0000 </r>
       <r>   -5.6160    1.0000 </r>
       <r>   -5.6160    1.0000 </r>
       <r>   -2.3001    1.0000 </r>
       <r>   -2.2994    1.0000 </r>
       <r>   -2.2990    1.0000 </r>
       <r>   -2.2983    1.0000 </r>
       <r>   -2.2351    1.0000 </r>
       <r>   -2.2351    1.0000 </r>
       <r>   -2.2351    1.0000 </r>
       <r>   -2.1178    1.0000 </r>
       <r>   -2.1178    1.0000 </r>
       <r>   -2.1174    1.0000 </r>
       <r>   -2.1174    1.0000 </r>
       <r>   -2.1171    1.0000 </r>
       <r>   -2.1171    1.0000 </r>
       <r>   -1.7015    1.0000 </r>
       <r>   -1.7005    1.0000 </r>
       <r>   -1.7004    1.0000 </r>
       <r>   -1.7003    1.0000 </r>
       <r>   -1.6999    1.0000 </r>
       <r>   -1.6998    1.0000 </r>
       <r>   -1.6997    1.0000 </r>
       <r>   -1.6997    1.0000 </r>
       <r>   -1.6992    1.0000 </r>
       <r>   -1.6992    1.0000 </r>
       <r>   -1.6990    1.0000 </r>
       <r>   -1.6980    1.0000 </r>
       <r>   -0.7868    1.0000 </r>
       <r>   -0.7868    1.0000 </r>
       <r>   -0.7865    1.0000 </r>
       <r>   -0.7865    1.0000 </r>
       <r>   -0.7862    1.0000 </r>
       <r>   -0.7861    1.0000 </r>
       <r>   -0.3107    1.0000 </r>
       <r>   -0.3104    1.0000 </r>
       <r>   -0.3098    1.0000 </r>
       <r>   -0.3098    1.0000 </r>
       <r>   -0.3093    1.0000 </r>
       <r>   -0.3090    1.0000 </r>
       <r>   -0.1693    1.0000 </r>
       <r>   -0.1690    1.0000 </r>
       <r>   -0.1689    1.0000 </r>
       <r>   -0.1689    1.0000 </r>
       <r>   -0.1688    1.0000 </r>
       <r>   -0.1686    1.0000 </r>
       <r>   -0.1444    1.0000 </r>
       <r>   -0.1442    1.0000 </r>
       <r>   -0.1437    1.0000 </r>
       <r>   -0.1433    1.0000 </r>
       <r>   -0.1432    1.0000 </r>
       <r>   -0.1432    1.0000 </r>
       <r>   -0.1430    1.0000 </r>
       <r>   -0.1430    1.0000 </r>
       <r>   -0.1429    1.0000 </r>
       <r>   -0.1425    1.0000 </r>
       <r>   -0.1420    1.0000 </r>
       <r>   -0.1417    1.0000 </r>
       <r>    0.1115    1.0000 </r>
       <r>    0.1120    1.0000 </r>
       <r>    0.1121    1.0000 </r>
       <r>    0.1121    1.0000 </r>
       <r>    0.1122    1.0000 </r>
       <r>    0.1127    1.0000 </r>
       <r>    0.8049    1.0000 </r>
       <r>    0.8057    1.0000 </r>
       <r>    0.8059    1.0000 </r>
       <r>    0.8064    1.0000 </r>
       <r>    0.8065    1.0000 </r>
       <r>    0.8065    1.0000 </r>
       <r>    0.8065    1.0000 </r>
       <r>    0.8065    1.0000 </r>
       <r>    0.8066    1.0000 </r>
       <r>    0.8070    1.0000 </r>
       <r>    0.8073    1.0000 </r>
       <r>    0.8081    1.0000 </r>
       <r>    1.0487    1.0000 </r>
       <r>    1.0497    1.0000 </r>
       <r>    1.0499    1.0000 </r>
       <r>    1.0500    1.0000 </r>
       <r>    1.0504    1.0000 </r>
       <r>    1.0504    1.0000 </r>
       <r>    1.0504    1.0000 </r>
       <r>    1.0505    1.0000 </r>
       <r>    1.0509    1.0000 </r>
       <r>    1.0510    1.0000 </r>
       <r>    1.0511    1.0000 </r>
       <r>    1.0520    1.0000 </r>
       <r>    1.0760    1.0000 </r>
       <r>    1.0766    1.0000 </r>
       <r>    1.0767    1.0000 </r>
       <r>    1.0768    1.0000 </r>
       <r>    1.0772    1.0000 </r>
       <r>    1.0774    1.0000 </r>
       <r>    1.0775    1.0000 </r>
       <r>    1.0782    1.0000 </r>
       <r>    1.7570    1.0000 </r>
       <r>    1.7573    1.0000 </r>
       <r>    1.7575    1.0000 </r>
       <r>    2.3220    0.0000 </r>
       <r>    3.5030    0.0000 </r>
       <r>    3.5032    0.0000 </r>
       <r>    3.5035    0.0000 </r>
       <r>    3.5038    0.0000 </r>
       <r>    4.4232    0.0000 </r>
       <r>    4.4232    0.0000 </r>
       <r>    4.4232    0.0000 </r>
       <r>    4.5060    0.0000 </r>
       <r>    4.5069    0.0000 </r>
       <r>    4.5079    0.0000 </r>
       <r>    4.5620    0.0000 </r>
       <r>    4.5622    0.0000 </r>
       <r>    4.5623    0.0000 </r>
       <r>    4.5624    0.0000 </r>
       <r>    4.5625    0.0000 </r>
       <r>    4.5627    0.0000 </r>
       <r>    4.7473    0.0000 </r>
       <r>    4.7473    0.0000 </r>
       <r>    4.7477    0.0000 </r>
       <r>    4.7477    0.0000 </r>
       <r>    4.7481    0.0000 </r>
       <r>    4.7482    0.0000 </r>
       <r>    4.7482    0.0000 </r>
       <r>    4.7483    0.0000 </r>
       <r>    4.7486    0.0000 </r>
       <r>    4.7487    0.0000 </r>
       <r>    4.7490    0.0000 </r>
       <r>    4.7491    0.0000 </r>
       <r>    5.1466    0.0000 </r>
       <r>    5.1468    0.0000 </r>
       <r>    5.1473    0.0000 </r>
       <r>    5.1473    0.0000 </r>
       <r>    5.1479    0.0000 </r>
       <r>    5.1481    0.0000 </r>
       <r>    5.7685    0.0000 </r>
       <r>    5.7685    0.0000 </r>
       <r>    5.7689    0.0000 </r>
       <r>    5.7689    0.0000 </r>
       <r>    5.7693    0.0000 </r>
       <r>    5.7693    0.0000 </r>
       <r>    6.3967    0.0000 </r>
       <r>    6.3969    0.0000 </r>
       <r>    6.3971    0.0000 </r>
       <r>    6.4540    0.0000 </r>
       <r>    6.4552    0.0000 </r>
       <r>    6.4554    0.0000 </r>
       <r>    6.4554    0.0000 </r>
       <r>    6.4556    0.0000 </r>
       <r>    6.4568    0.0000 </r>
       <r>    6.9468    0.0000 </r>
       <r>    6.9469    0.0000 </r>
       <r>    6.9475    0.0000 </r>
       <r>    6.9476    0.0000 </r>
       <r>    6.9476    0.0000 </r>
       <r>    6.9477    0.0000 </r>
       <r>    6.9479    0.0000 </r>
       <r>    6.9480    0.0000 </r>
       <r>    6.9481    0.0000 </r>
       <r>    6.9481    0.0000 </r>
       <r>    6.9487    0.0000 </r>
       <r>    6.9487    0.0000 </r>
       <r>    6.9632    0.0000 </r>
       <r>    6.9632    0.0000 </r>
       <r>    6.9642    0.0000 </r>
       <r>    6.9643    0.0000 </r>
       <r>    6.9644    0.0000 </r>
       <r>    6.9644    0.0000 </r>
       <r>    6.9655    0.0000 </r>
       <r>    6.9655    0.0000 </r>
       <r>    7.2326    0.0000 </r>
       <r>    7.2334    0.0000 </r>
       <r>    7.2334    0.0000 </r>
       <r>    7.2334    0.0000 </r>
       <r>    7.2335    0.0000 </r>
       <r>    7.2342    0.0000 </r>
       <r>    7.3056    0.0000 </r>
       <r>    7.3061    0.0000 </r>
       <r>    7.3061    0.0000 </r>
       <r>    7.3070    0.0000 </r>
       <r>    7.3071    0.0000 </r>
       <r>    7.3071    0.0000 </r>
       <r>    7.3072    0.0000 </r>
       <r>    7.3072    0.0000 </r>
       <r>    7.3073    0.0000 </r>
       <r>    7.3082    0.0000 </r>
       <r>    7.3082    0.0000 </r>
       <r>    7.3087    0.0000 </r>
       <r>    7.5552    0.0000 </r>
       <r>    7.5562    0.0000 </r>
       <r>    7.5564    0.0000 </r>
       <r>    7.5565    0.0000 </r>
       <r>    7.5567    0.0000 </r>
       <r>    7.5568    0.0000 </r>
       <r>    7.5570    0.0000 </r>
       <r>    7.5583    0.0000 </r>
      </set>
      <set comment="kpoint 2">
       <r>   -9.0234    1.0000 </r>
       <r>   -8.9408    1.0000 </r>
       <r>   -8.8150    1.0000 </r>
       <r>   -8.8141    1.0000 </r>
       <r>   -8.8140    1.0000 </r>
       <r>   -8.8131    1.0000 </r>
       <r>   -8.7744    1.0000 </r>
       <r>   -8.7735    1.0000 </r>
       <r>   -8.7734    1.0000 </r>
       <r>   -8.7725    1.0000 </r>
       <r>   -8.7212    1.0000 </r>
       <r>   -8.7204    1.0000 </r>
       <r>   -8.7192    1.0000 </r>
       <r>   -8.7186    1.0000 </r>
       <r>   -8.7186    1.0000 </r>
       <r>   -8.7177    1.0000 </r>
       <r>   -8.7177    1.0000 </r>
       <r>   -8.7161    1.0000 </r>
       <r>   -8.7156    1.0000 </r>
       <r>   -8.6676    1.0000 </r>
       <r>   -8.6666    1.0000 </r>
       <r>   -8.6666    1.0000 </r>
       <r>   -8.6657    1.0000 </r>
       <r>   -8.6419    1.0000 </r>
       <r>   -8.6302    1.0000 </r>
       <r>   -8.6292    1.0000 </r>
       <r>   -8.6290    1.0000 </r>
       <r>   -8.6282    1.0000 </r>
       <r>   -8.6169    1.0000 </r>
       <r>   -8.6154    1.0000 </r>
       <r>   -8.6146    1.0000 </r>
       <r>   -8.6128    1.0000 </r>
       <r>   -6.3018    1.0000 </r>
       <r>   -6.3016    1.0000 </r>
       <r>   -6.2904    1.0000 </r>
       <r>   -6.2792    1.0000 </r>
       <r>   -6.2790    1.0000 </r>
       <r>   -6.2569    1.0000 </r>
       <r>   -6.2567    1.0000 </r>
       <r>   -6.2566    1.0000 </r>
       <r>   -6.2564    1.0000 </r>
       <r>   -6.2550    1.0000 </r>
       <r>   -6.2548    1.0000 </r>
       <r>   -6.2547    1.0000 </r>
       <r>   -6.2545    1.0000 </r>
       <r>   -6.2545    1.0000 </r>
       <r>   -6.2545    1.0000 </r>
       <r>   -6.2544    1.0000 </r>
       <r>   -6.2543    1.0000 </r>
       <r>   -6.2541    1.0000 </r>
       <r>   -6.2541    1.0000 </r>
       <r>   -6.2539    1.0000 </r>
       <r>   -6.2538    1.0000 </r>
       <r>   -6.2483    1.0000 </r>
       <r>   -6.2480    1.0000 </r>
       <r>   -6.2479    1.0000 </r>
       <r>   -6.2478    1.0000 </r>
       <r>   -6.2476    1.0000 </r>
       <r>   -6.2475    1.0000 </r>
       <r>   -6.2473    1.0000 </r>
       <r>   -6.2473    1.0000 </r>
       <r>   -6.2469    1.0000 </r>
       <r>   -6.2467    1.0000 </r>
       <r>   -6.2467    1.0000 </r>
       <r>   -6.2465    1.0000 </r>
       <r>   -6.2465    1.0000 </r>
       <r>   -6.2464    1.0000 </r>
       <r>   -6.2464    1.0000 </r>
       <r>   -6.2463    1.0000 </r>
       <r>   -6.2318    1.0000 </r>
       <r>   -6.2317    1.0000 </r>
       <r>   -6.2316    1.0000 </r>
       <r>   -6.2314    1.0000 </r>
       <r>   -6.2314    1.0000 </r>
       <r>   -6.2239    1.0000 </r>
       <r>   -6.2237    1.0000 </r>
       <r>   -6.2237    1.0000 </r>
       <r>   -6.2235    1.0000 </r>
       <r>   -6.2183    1.0000 </r>
       <r>   -6.2181    1.0000 </r>
       <r>   -6.2181    1.0000 </r>
       <r>   -6.2179    1.0000 </r>
       <r>   -6.2125    1.0000 </r>
       <r>   -6.2123    1.0000 </r>
       <r>   -6.2072    1.0000 </r>
       <r>   -6.2070    1.0000 </r>
       <r>   -6.2070    1.0000 </r>
       <r>   -6.2068    1.0000 </r>
       <r>   -6.2028    1.0000 </r>
       <r>   -6.2027    1.0000 </r>
       <r>   -6.1997    1.0000 </r>
       <r>   -6.1997    1.0000 </r>
       <r>   -6.1908    1.0000 </r>
       <r>   -6.1908    1.0000 </r>
       <r>   -6.1868    1.0000 </r>
       <r>   -6.1866    1.0000 </r>
       <r>   -6.1861    1.0000 </r>
       <r>   -6.1860    1.0000 </r>
       <r>   -6.1707    1.0000 </r>
       <r>   -6.1623    1.0000 </r>
       <r>   -6.1556    1.0000 </r>
       <r>   -6.1556    1.0000 </r>
       <r>   -6.1450    1.0000 </r>
       <r>   -6.1449    1.0000 </r>
       <r>   -6.1449    1.0000 </r>
       <r>   -6.1448    1.0000 </r>
       <r>   -6.1334    1.0000 </r>
       <r>   -6.1334    1.0000 </r>
       <r>   -6.1177    1.0000 </r>
       <r>   -6.1175    1.0000 </r>
       <r>   -6.1175    1.0000 </r>
       <r>   -6.1174    1.0000 </r>
       <r>   -6.1171    1.0000 </r>
       <r>   -6.1171    1.0000 </r>
       <r>   -6.1170    1.0000 </r>
       <r>   -6.1168    1.0000 </r>
       <r>   -6.1109    1.0000 </r>
       <r>   -6.1107    1.0000 </r>
       <r>   -6.1106    1.0000 </r>
       <r>   -6.1104    1.0000 </r>
       <r>   -6.1019    1.0000 </r>
       <r>   -6.0987    1.0000 </r>
       <r>   -6.0981    1.0000 </r>
       <r>   -6.0981    1.0000 </r>
       <r>   -6.0981    1.0000 </r>
       <r>   -6.0980    1.0000 </r>
       <r>   -6.0967    1.0000 </r>
       <r>   -6.0967    1.0000 </r>
       <r>   -6.0966    1.0000 </r>
       <r>   -6.0965    1.0000 </r>
       <r>   -6.0946    1.0000 </r>
       <r>   -6.0946    1.0000 </r>
       <r>   -6.0944    1.0000 </r>
       <r>   -6.0942    1.0000 </r>
       <r>   -6.0941    1.0000 </r>
       <r>   -6.0935    1.0000 </r>
       <r>   -6.0933    1.0000 </r>
       <r>   -6.0933    1.0000 </r>
       <r>   -6.0932    1.0000 </r>
       <r>   -6.0915    1.0000 </r>
       <r>   -6.0915    1.0000 </r>
       <r>   -6.0914    1.0000 </r>
       <r>   -6.0914    1.0000 </r>
       <r>   -6.0913    1.0000 </r>
       <r>   -6.0911    1.0000 </r>
       <r>   -6.0911    1.0000 </r>
       <r>   -6.0908    1.0000 </r>
       <r>   -6.0907    1.0000 </r>
       <r>   -6.0906    1.0000 </r>
       <r>   -6.0905    1.0000 </r>
       <r>   -6.0905    1.0000 </r>
       <r>   -6.0895    1.0000 </r>
       <r>   -6.0849    1.0000 </r>
       <r>   -6.0849    1.0000 </r>
       <r>   -6.0847    1.0000 </r>
       <r>   -6.0845    1.0000 </r>
       <r>   -6.0844    1.0000 </r>
       <r>   -6.0843    1.0000 </r>
       <r>   -6.0768    1.0000 </r>
       <r>   -6.0741    1.0000 </r>
       <r>   -6.0741    1.0000 </r>
       <r>   -6.0721    1.0000 </r>
       <r>   -6.0413    1.0000 </r>
       <r>   -6.0412    1.0000 </r>
       <r>   -6.0412    1.0000 </r>
       <r>   -6.0412    1.0000 </r>
       <r>   -5.9655    1.0000 </r>
       <r>   -5.9655    1.0000 </r>
       <r>   -5.9655    1.0000 </r>
       <r>   -5.9655    1.0000 </r>
       <r>   -5.9174    1.0000 </r>
       <r>   -5.8382    1.0000 </r>
       <r>   -5.8381    1.0000 </r>
       <r>   -5.8379    1.0000 </r>
       <r>   -5.8378    1.0000 </r>
       <r>   -5.8106    1.0000 </r>
       <r>   -5.8105    1.0000 </r>
       <r>   -5.8103    1.0000 </r>
       <r>   -5.8103    1.0000 </r>
       <r>   -5.7537    1.0000 </r>
       <r>   -5.7337    1.0000 </r>
       <r>   -5.7336    1.0000 </r>
       <r>   -5.7336    1.0000 </r>
       <r>   -5.7335    1.0000 </r>
       <r>   -5.6628    1.0000 </r>
       <r>   -5.6626    1.0000 </r>
       <r>   -5.6474    1.0000 </r>
       <r>   -5.6473    1.0000 </r>
       <r>   -5.6473    1.0000 </r>
       <r>   -5.6473    1.0000 </r>
       <r>   -5.6315    1.0000 </r>
       <r>   -5.6314    1.0000 </r>
       <r>   -2.2086    1.0000 </r>
       <r>   -2.2085    1.0000 </r>
       <r>   -2.1834    1.0000 </r>
       <r>   -2.1827    1.0000 </r>
       <r>   -2.1823    1.0000 </r>
       <r>   -2.1816    1.0000 </r>
       <r>   -2.1500    1.0000 </r>
       <r>   -2.1499    1.0000 </r>
       <r>   -2.0816    1.0000 </r>
       <r>   -2.0813    1.0000 </r>
       <r>   -2.0813    1.0000 </r>
       <r>   -2.0810    1.0000 </r>
       <r>   -2.0382    1.0000 </r>
       <r>   -1.9518    1.0000 </r>
       <r>   -1.9515    1.0000 </r>
       <r>   -1.9515    1.0000 </r>
       <r>   -1.9512    1.0000 </r>
       <r>   -1.8965    1.0000 </r>
       <r>   -1.8957    1.0000 </r>
       <r>   -1.8953    1.0000 </r>
       <r>   -1.8945    1.0000 </r>
       <r>   -1.5156    1.0000 </r>
       <r>   -1.3436    1.0000 </r>
       <r>   -1.3433    1.0000 </r>
       <r>   -1.3433    1.0000 </r>
       <r>   -1.3430    1.0000 </r>
       <r>   -0.9707    1.0000 </r>
       <r>   -0.9704    1.0000 </r>
       <r>   -0.9704    1.0000 </r>
       <r>   -0.9701    1.0000 </r>
       <r>   -0.4515    1.0000 </r>
       <r>   -0.4512    1.0000 </r>
       <r>   -0.4511    1.0000 </r>
       <r>   -0.4508    1.0000 </r>
       <r>   -0.4013    1.0000 </r>
       <r>   -0.4011    1.0000 </r>
       <r>   -0.4010    1.0000 </r>
       <r>   -0.4008    1.0000 </r>
       <r>   -0.2083    1.0000 </r>
       <r>   -0.2083    1.0000 </r>
       <r>   -0.1043    1.0000 </r>
       <r>   -0.1035    1.0000 </r>
       <r>    0.0015    1.0000 </r>
       <r>    0.0015    1.0000 </r>
       <r>    0.0356    1.0000 </r>
       <r>    0.0365    1.0000 </r>
       <r>    0.0666    1.0000 </r>
       <r>    0.1708    1.0000 </r>
       <r>    0.1708    1.0000 </r>
       <r>    0.1711    1.0000 </r>
       <r>    0.1711    1.0000 </r>
       <r>    0.1868    1.0000 </r>
       <r>    0.1872    1.0000 </r>
       <r>    0.1872    1.0000 </r>
       <r>    0.1876    1.0000 </r>
       <r>    0.1966    1.0000 </r>
       <r>    0.1969    1.0000 </r>
       <r>    0.2438    1.0000 </r>
       <r>    0.2442    1.0000 </r>
       <r>    0.2442    1.0000 </r>
       <r>    0.2445    1.0000 </r>
       <r>    0.4395    1.0000 </r>
       <r>    0.4398    1.0000 </r>
       <r>    0.6304    1.0000 </r>
       <r>    0.6308    1.0000 </r>
       <r>    0.6308    1.0000 </r>
       <r>    0.6313    1.0000 </r>
       <r>    0.6831    1.0000 </r>
       <r>    0.6836    1.0000 </r>
       <r>    0.6837    1.0000 </r>
       <r>    0.6842    1.0000 </r>
       <r>    0.7558    1.0000 </r>
       <r>    0.7559    1.0000 </r>
       <r>    0.7563    1.0000 </r>
       <r>    0.7564    1.0000 </r>
       <r>    0.9357    1.0000 </r>
       <r>    0.9363    1.0000 </r>
       <r>    0.9363    1.0000 </r>
       <r>    0.9369    1.0000 </r>
       <r>    0.9938    1.0000 </r>
       <r>    1.0559    1.0000 </r>
       <r>    1.0565    1.0000 </r>
       <r>    1.0574    1.0000 </r>
       <r>    1.0578    1.0000 </r>
       <r>    1.0695    1.0000 </r>
       <r>    1.0700    1.0000 </r>
       <r>    1.0708    1.0000 </r>
       <r>    1.0714    1.0000 </r>
       <r>    1.1116    1.0000 </r>
       <r>    1.1122    1.0000 </r>
       <r>    1.1122    1.0000 </r>
       <r>    1.1128    1.0000 </r>
       <r>    1.2318    1.0000 </r>
       <r>    1.2322    1.0000 </r>
       <r>    1.6023    1.0000 </r>
       <r>    1.6028    1.0000 </r>
       <r>    3.1067    0.0000 </r>
       <r>    3.8409    0.0000 </r>
       <r>    3.8413    0.0000 </r>
       <r>    3.8414    0.0000 </r>
       <r>    3.8417    0.0000 </r>
       <r>    4.0250    0.0000 </r>
       <r>    4.4122    0.0000 </r>
       <r>    4.4486    0.0000 </r>
       <r>    4.4491    0.0000 </r>
       <r>    4.4494    0.0000 </r>
       <r>    4.4498    0.0000 </r>
       <r>    4.5186    0.0000 </r>
       <r>    4.6291    0.0000 </r>
       <r>    4.6292    0.0000 </r>
       <r>    4.6292    0.0000 </r>
       <r>    4.6294    0.0000 </r>
       <r>    4.6685    0.0000 </r>
       <r>    4.6836    0.0000 </r>
       <r>    4.6836    0.0000 </r>
       <r>    4.6837    0.0000 </r>
       <r>    4.6837    0.0000 </r>
       <r>    4.6940    0.0000 </r>
       <r>    4.6940    0.0000 </r>
       <r>    4.8063    0.0000 </r>
       <r>    4.8081    0.0000 </r>
       <r>    4.9273    0.0000 </r>
       <r>    5.0269    0.0000 </r>
       <r>    5.0270    0.0000 </r>
       <r>    5.0270    0.0000 </r>
       <r>    5.0271    0.0000 </r>
       <r>    5.3330    0.0000 </r>
       <r>    5.3330    0.0000 </r>
       <r>    5.4354    0.0000 </r>
       <r>    5.4361    0.0000 </r>
       <r>    5.4361    0.0000 </r>
       <r>    5.4368    0.0000 </r>
       <r>    5.4850    0.0000 </r>
       <r>    5.4851    0.0000 </r>
       <r>    5.4851    0.0000 </r>
       <r>    5.4852    0.0000 </r>
       <r>    5.5577    0.0000 </r>
       <r>    5.6050    0.0000 </r>
       <r>    5.6065    0.0000 </r>
       <r>    6.0966    0.0000 </r>
       <r>    6.2498    0.0000 </r>
       <r>    6.2504    0.0000 </r>
       <r>    6.2504    0.0000 </r>
       <r>    6.2510    0.0000 </r>
       <r>    6.5877    0.0000 </r>
       <r>    6.5880    0.0000 </r>
       <r>    6.5880    0.0000 </r>
       <r>    6.5882    0.0000 </r>
       <r>    6.6347    0.0000 </r>
       <r>    6.6351    0.0000 </r>
       <r>    6.7405    0.0000 </r>
       <r>    6.7408    0.0000 </r>
       <r>    6.7415    0.0000 </r>
       <r>    6.7418    0.0000 </r>
       <r>    6.8093    0.0000 </r>
       <r>    6.8096    0.0000 </r>
       <r>    6.8096    0.0000 </r>
       <r>    6.8098    0.0000 </r>
       <r>    6.8318    0.0000 </r>
       <r>    6.8325    0.0000 </r>
       <r>    6.8330    0.0000 </r>
       <r>    6.8337    0.0000 </r>
       <r>    7.0801    0.0000 </r>
       <r>    7.0810    0.0000 </r>
       <r>    7.0812    0.0000 </r>
       <r>    7.0820    0.0000 </r>
       <r>    7.0985    0.0000 </r>
       <r>    7.0990    0.0000 </r>
       <r>    7.0990    0.0000 </r>
       <r>    7.0995    0.0000 </r>
       <r>    7.1322    0.0000 </r>
       <r>    7.1323    0.0000 </r>
       <r>    7.1323    0.0000 </r>
       <r>    7.1325    0.0000 </r>
       <r>    7.1666    0.0000 </r>
       <r>    7.1671    0.0000 </r>
       <r>    7.1671    0.0000 </r>
       <r>    7.1676    0.0000 </r>
       <r>    7.2564    0.0000 </r>
       <r>    7.2567    0.0000 </r>
       <r>    7.3661    0.0000 </r>
       <r>    7.3670    0.0000 </r>
       <r>    7.3673    0.0000 </r>
       <r>    7.3682    0.0000 </r>
       <r>    7.5328    0.0000 </r>
       <r>    7.5333    0.0000 </r>
       <r>    7.5333    0.0000 </r>
       <r>    7.5338    0.0000 </r>
       <r>    7.7937    0.0000 </r>
       <r>    7.7942    0.0000 </r>
       <r>    7.7942    0.0000 </r>
       <r>    7.7947    0.0000 </r>
      </set>
      <set comment="kpoint 3">
       <r>   -9.0234    1.0000 </r>
       <r>   -8.9408    1.0000 </r>
       <r>   -8.8154    1.0000 </r>
       <r>   -8.8140    1.0000 </r>
       <r>   -8.8140    1.0000 </r>
       <r>   -8.8127    1.0000 </r>
       <r>   -8.7747    1.0000 </r>
       <r>   -8.7735    1.0000 </r>
       <r>   -8.7734    1.0000 </r>
       <r>   -8.7722    1.0000 </r>
       <r>   -8.7209    1.0000 </r>
       <r>   -8.7200    1.0000 </r>
       <r>   -8.7191    1.0000 </r>
       <r>   -8.7183    1.0000 </r>
       <r>   -8.7182    1.0000 </r>
       <r>   -8.7181    1.0000 </r>
       <r>   -8.7180    1.0000 </r>
       <r>   -8.7164    1.0000 </r>
       <r>   -8.7161    1.0000 </r>
       <r>   -8.6679    1.0000 </r>
       <r>   -8.6666    1.0000 </r>
       <r>   -8.6666    1.0000 </r>
       <r>   -8.6654    1.0000 </r>
       <r>   -8.6421    1.0000 </r>
       <r>   -8.6304    1.0000 </r>
       <r>   -8.6292    1.0000 </r>
       <r>   -8.6291    1.0000 </r>
       <r>   -8.6280    1.0000 </r>
       <r>   -8.6153    1.0000 </r>
       <r>   -8.6152    1.0000 </r>
       <r>   -8.6146    1.0000 </r>
       <r>   -8.6144    1.0000 </r>
       <r>   -6.3017    1.0000 </r>
       <r>   -6.3017    1.0000 </r>
       <r>   -6.2904    1.0000 </r>
       <r>   -6.2791    1.0000 </r>
       <r>   -6.2791    1.0000 </r>
       <r>   -6.2571    1.0000 </r>
       <r>   -6.2568    1.0000 </r>
       <r>   -6.2566    1.0000 </r>
       <r>   -6.2565    1.0000 </r>
       <r>   -6.2549    1.0000 </r>
       <r>   -6.2548    1.0000 </r>
       <r>   -6.2547    1.0000 </r>
       <r>   -6.2546    1.0000 </r>
       <r>   -6.2546    1.0000 </r>
       <r>   -6.2544    1.0000 </r>
       <r>   -6.2544    1.0000 </r>
       <r>   -6.2542    1.0000 </r>
       <r>   -6.2541    1.0000 </r>
       <r>   -6.2540    1.0000 </r>
       <r>   -6.2539    1.0000 </r>
       <r>   -6.2535    1.0000 </r>
       <r>   -6.2482    1.0000 </r>
       <r>   -6.2482    1.0000 </r>
       <r>   -6.2480    1.0000 </r>
       <r>   -6.2480    1.0000 </r>
       <r>   -6.2473    1.0000 </r>
       <r>   -6.2472    1.0000 </r>
       <r>   -6.2471    1.0000 </r>
       <r>   -6.2471    1.0000 </r>
       <r>   -6.2470    1.0000 </r>
       <r>   -6.2469    1.0000 </r>
       <r>   -6.2469    1.0000 </r>
       <r>   -6.2468    1.0000 </r>
       <r>   -6.2465    1.0000 </r>
       <r>   -6.2465    1.0000 </r>
       <r>   -6.2464    1.0000 </r>
       <r>   -6.2462    1.0000 </r>
       <r>   -6.2317    1.0000 </r>
       <r>   -6.2317    1.0000 </r>
       <r>   -6.2316    1.0000 </r>
       <r>   -6.2316    1.0000 </r>
       <r>   -6.2314    1.0000 </r>
       <r>   -6.2239    1.0000 </r>
       <r>   -6.2238    1.0000 </r>
       <r>   -6.2237    1.0000 </r>
       <r>   -6.2236    1.0000 </r>
       <r>   -6.2182    1.0000 </r>
       <r>   -6.2181    1.0000 </r>
       <r>   -6.2181    1.0000 </r>
       <r>   -6.2181    1.0000 </r>
       <r>   -6.2124    1.0000 </r>
       <r>   -6.2124    1.0000 </r>
       <r>   -6.2071    1.0000 </r>
       <r>   -6.2070    1.0000 </r>
       <r>   -6.2070    1.0000 </r>
       <r>   -6.2069    1.0000 </r>
       <r>   -6.2027    1.0000 </r>
       <r>   -6.2027    1.0000 </r>
       <r>   -6.1996    1.0000 </r>
       <r>   -6.1996    1.0000 </r>
       <r>   -6.1908    1.0000 </r>
       <r>   -6.1908    1.0000 </r>
       <r>   -6.1867    1.0000 </r>
       <r>   -6.1867    1.0000 </r>
       <r>   -6.1860    1.0000 </r>
       <r>   -6.1860    1.0000 </r>
       <r>   -6.1707    1.0000 </r>
       <r>   -6.1623    1.0000 </r>
       <r>   -6.1557    1.0000 </r>
       <r>   -6.1556    1.0000 </r>
       <r>   -6.1450    1.0000 </r>
       <r>   -6.1449    1.0000 </r>
       <r>   -6.1449    1.0000 </r>
       <r>   -6.1448    1.0000 </r>
       <r>   -6.1334    1.0000 </r>
       <r>   -6.1334    1.0000 </r>
       <r>   -6.1176    1.0000 </r>
       <r>   -6.1176    1.0000 </r>
       <r>   -6.1176    1.0000 </r>
       <r>   -6.1173    1.0000 </r>
       <r>   -6.1172    1.0000 </r>
       <r>   -6.1170    1.0000 </r>
       <r>   -6.1170    1.0000 </r>
       <r>   -6.1169    1.0000 </r>
       <r>   -6.1109    1.0000 </r>
       <r>   -6.1107    1.0000 </r>
       <r>   -6.1107    1.0000 </r>
       <r>   -6.1105    1.0000 </r>
       <r>   -6.1019    1.0000 </r>
       <r>   -6.0987    1.0000 </r>
       <r>   -6.0981    1.0000 </r>
       <r>   -6.0981    1.0000 </r>
       <r>   -6.0980    1.0000 </r>
       <r>   -6.0980    1.0000 </r>
       <r>   -6.0967    1.0000 </r>
       <r>   -6.0966    1.0000 </r>
       <r>   -6.0966    1.0000 </r>
       <r>   -6.0966    1.0000 </r>
       <r>   -6.0946    1.0000 </r>
       <r>   -6.0944    1.0000 </r>
       <r>   -6.0943    1.0000 </r>
       <r>   -6.0942    1.0000 </r>
       <r>   -6.0940    1.0000 </r>
       <r>   -6.0935    1.0000 </r>
       <r>   -6.0935    1.0000 </r>
       <r>   -6.0934    1.0000 </r>
       <r>   -6.0933    1.0000 </r>
       <r>   -6.0916    1.0000 </r>
       <r>   -6.0915    1.0000 </r>
       <r>   -6.0915    1.0000 </r>
       <r>   -6.0913    1.0000 </r>
       <r>   -6.0913    1.0000 </r>
       <r>   -6.0912    1.0000 </r>
       <r>   -6.0911    1.0000 </r>
       <r>   -6.0910    1.0000 </r>
       <r>   -6.0906    1.0000 </r>
       <r>   -6.0906    1.0000 </r>
       <r>   -6.0903    1.0000 </r>
       <r>   -6.0903    1.0000 </r>
       <r>   -6.0895    1.0000 </r>
       <r>   -6.0849    1.0000 </r>
       <r>   -6.0848    1.0000 </r>
       <r>   -6.0846    1.0000 </r>
       <r>   -6.0846    1.0000 </r>
       <r>   -6.0843    1.0000 </r>
       <r>   -6.0842    1.0000 </r>
       <r>   -6.0767    1.0000 </r>
       <r>   -6.0741    1.0000 </r>
       <r>   -6.0741    1.0000 </r>
       <r>   -6.0721    1.0000 </r>
       <r>   -6.0414    1.0000 </r>
       <r>   -6.0413    1.0000 </r>
       <r>   -6.0412    1.0000 </r>
       <r>   -6.0411    1.0000 </r>
       <r>   -5.9657    1.0000 </r>
       <r>   -5.9655    1.0000 </r>
       <r>   -5.9655    1.0000 </r>
       <r>   -5.9654    1.0000 </r>
       <r>   -5.9174    1.0000 </r>
       <r>   -5.8381    1.0000 </r>
       <r>   -5.8380    1.0000 </r>
       <r>   -5.8379    1.0000 </r>
       <r>   -5.8379    1.0000 </r>
       <r>   -5.8105    1.0000 </r>
       <r>   -5.8105    1.0000 </r>
       <r>   -5.8103    1.0000 </r>
       <r>   -5.8103    1.0000 </r>
       <r>   -5.7537    1.0000 </r>
       <r>   -5.7336    1.0000 </r>
       <r>   -5.7336    1.0000 </r>
       <r>   -5.7336    1.0000 </r>
       <r>   -5.7335    1.0000 </r>
       <r>   -5.6627    1.0000 </r>
       <r>   -5.6627    1.0000 </r>
       <r>   -5.6474    1.0000 </r>
       <r>   -5.6474    1.0000 </r>
       <r>   -5.6473    1.0000 </r>
       <r>   -5.6473    1.0000 </r>
       <r>   -5.6315    1.0000 </r>
       <r>   -5.6315    1.0000 </r>
       <r>   -2.2085    1.0000 </r>
       <r>   -2.2085    1.0000 </r>
       <r>   -2.1834    1.0000 </r>
       <r>   -2.1827    1.0000 </r>
       <r>   -2.1823    1.0000 </r>
       <r>   -2.1817    1.0000 </r>
       <r>   -2.1500    1.0000 </r>
       <r>   -2.1500    1.0000 </r>
       <r>   -2.0817    1.0000 </r>
[...]
      </set>
     </set>
    </set>
   </array>
  </eigenvalues>
  <separator name="orbital magnetization" >
   <v name="MAGDIPOLOUT">      0.00000000      0.00000000      0.00000000</v>
  </separator>
  <dos>
   <i name="efermi">      1.98648509 </i>
   <total>
    <array>
     <dimension dim="1">gridpoints</dimension>
     <dimension dim="2">spin</dimension>
     <field>energy</field>
     <field>total</field>
     <field>integrated</field>
     <set>
      <set comment="spin 1">
       <r>    -9.8974     0.0000     0.0000 </r>
       <r>    -9.8355     0.0000     0.0000 </r>
       <r>    -9.7737     0.0000     0.0000 </r>
       <r>    -9.7118     0.0000     0.0000 </r>
       <r>    -9.6499     0.0000     0.0000 </r>
       <r>    -9.5880     0.0000     0.0000 </r>
       <r>    -9.5262     0.0000     0.0000 </r>
       <r>    -9.4643     0.0000     0.0000 </r>
       <r>    -9.4024     0.0000     0.0000 </r>
       <r>    -9.3405     0.0000     0.0000 </r>
       <r>    -9.2787     0.0000     0.0000 </r>
       <r>    -9.2168     0.0000     0.0000 </r>
       <r>    -9.1549     0.0033     0.0002 </r>
       <r>    -9.0930     0.3739     0.0233 </r>
       <r>    -9.0312     6.1202     0.4020 </r>
       <r>    -8.9693    21.4263     1.7278 </r>
       <r>    -8.9074    40.9373     4.2608 </r>
       <r>    -8.8455    60.1727     7.9840 </r>
       <r>    -8.7837   102.2251    14.3092 </r>
       <r>    -8.7218   180.3769    25.4700 </r>
       <r>    -8.6599   304.6755    44.3218 </r>
       <r>    -8.5980   261.7434    60.5172 </r>
       <r>    -8.5362    54.9227    63.9156 </r>
       <r>    -8.4743     1.3618    63.9998 </r>
       <r>    -8.4124     0.0027    64.0000 </r>
       <r>    -8.3505     0.0000    64.0000 </r>
       <r>    -8.2886     0.0000    64.0000 </r>
       <r>    -8.2268     0.0000    64.0000 </r>
       <r>    -8.1649     0.0000    64.0000 </r>
       <r>    -8.1030     0.0000    64.0000 </r>
       <r>    -8.0411     0.0000    64.0000 </r>
       <r>    -7.9793     0.0000    64.0000 </r>
       <r>    -7.9174     0.0000    64.0000 </r>
       <r>    -7.8555     0.0000    64.0000 </r>
       <r>    -7.7936     0.0000    64.0000 </r>
       <r>    -7.7318     0.0000    64.0000 </r>
       <r>    -7.6699     0.0000    64.0000 </r>
       <r>    -7.6080     0.0000    64.0000 </r>
       <r>    -7.5461     0.0000    64.0000 </r>
       <r>    -7.4843     0.0000    64.0000 </r>
       <r>    -7.4224     0.0000    64.0000 </r>
       <r>    -7.3605     0.0000    64.0000 </r>
       <r>    -7.2986     0.0000    64.0000 </r>
       <r>    -7.2368     0.0000    64.0000 </r>
       <r>    -7.1749     0.0000    64.0000 </r>
       <r>    -7.1130     0.0000    64.0000 </r>
       <r>    -7.0511     0.0000    64.0000 </r>
       <r>    -6.9893     0.0000    64.0000 </r>
       <r>    -6.9274     0.0000    64.0000 </r>
       <r>    -6.8655     0.0000    64.0000 </r>
       <r>    -6.8036     0.0000    64.0000 </r>
       <r>    -6.7418     0.0000    64.0000 </r>
       <r>    -6.6799     0.0000    64.0000 </r>
       <r>    -6.6180     0.0000    64.0000 </r>
       <r>    -6.5561     0.0000    64.0000 </r>
       <r>    -6.4943     0.0000    64.0000 </r>
       <r>    -6.4324     0.0073    64.0005 </r>
       <r>    -6.3705     2.7196    64.1687 </r>
       <r>    -6.3086   109.7973    70.9624 </r>
       <r>    -6.2468   744.2846   117.0151 </r>
       <r>    -6.1849  1079.7411   183.8242 </r>
       <r>    -6.1230   864.1759   237.2952 </r>
       <r>    -6.0611  1161.6142   309.1702 </r>
       <r>    -5.9993   370.3017   332.0827 </r>
       <r>    -5.9374    80.1102   337.0395 </r>
       <r>    -5.8755    86.6142   342.3987 </r>
       <r>    -5.8136   120.9950   349.8853 </r>
       <r>    -5.7518   153.1283   359.3602 </r>
       <r>    -5.6899   189.5179   371.0866 </r>
       <r>    -5.6280   161.4619   381.0771 </r>
       <r>    -5.5661    45.0744   383.8660 </r>
       <r>    -5.5043     2.1539   383.9993 </r>
       <r>    -5.4424     0.0110   384.0000 </r>
       <r>    -5.3805     0.0000   384.0000 </r>
       <r>    -5.3186     0.0000   384.0000 </r>
       <r>    -5.2568     0.0000   384.0000 </r>
       <r>    -5.1949     0.0000   384.0000 </r>
       <r>    -5.1330     0.0000   384.0000 </r>
       <r>    -5.0711     0.0000   384.0000 </r>
       <r>    -5.0093     0.0000   384.0000 </r>
       <r>    -4.9474     0.0000   384.0000 </r>
       <r>    -4.8855     0.0000   384.0000 </r>
       <r>    -4.8236     0.0000   384.0000 </r>
       <r>    -4.7618     0.0000   384.0000 </r>
       <r>    -4.6999     0.0000   384.0000 </r>
       <r>    -4.6380     0.0000   384.0000 </r>
       <r>    -4.5761     0.0000   384.0000 </r>
       <r>    -4.5143     0.0000   384.0000 </r>
       <r>    -4.4524     0.0000   384.0000 </r>
       <r>    -4.3905     0.0000   384.0000 </r>
       <r>    -4.3286     0.0000   384.0000 </r>
       <r>    -4.2668     0.0000   384.0000 </r>
       <r>    -4.2049     0.0000   384.0000 </r>
       <r>    -4.1430     0.0000   384.0000 </r>
       <r>    -4.0811     0.0000   384.0000 </r>
       <r>    -4.0193     0.0000   384.0000 </r>
       <r>    -3.9574     0.0000   384.0000 </r>
       <r>    -3.8955     0.0000   384.0000 </r>
       <r>    -3.8336     0.0000   384.0000 </r>
       <r>    -3.7718     0.0000   384.0000 </r>
       <r>    -3.7099     0.0000   384.0000 </r>
       <r>    -3.6480     0.0000   384.0000 </r>
       <r>    -3.5861     0.0000   384.0000 </r>
       <r>    -3.5243     0.0000   384.0000 </r>
       <r>    -3.4624     0.0000   384.0000 </r>
       <r>    -3.4005     0.0000   384.0000 </r>
       <r>    -3.3386     0.0000   384.0000 </r>
       <r>    -3.2768     0.0000   384.0000 </r>
       <r>    -3.2149     0.0000   384.0000 </r>
       <r>    -3.1530     0.0000   384.0000 </r>
       <r>    -3.0911     0.0000   384.0000 </r>
       <r>    -3.0293     0.0000   384.0000 </r>
       <r>    -2.9674     0.0000   384.0000 </r>
       <r>    -2.9055     0.0000   384.0000 </r>
       <r>    -2.8436     0.0000   384.0000 </r>
       <r>    -2.7818     0.0000   384.0000 </r>
       <r>    -2.7199     0.0000   384.0000 </r>
       <r>    -2.6580     0.0000   384.0000 </r>
       <r>    -2.5961     0.0000   384.0000 </r>
       <r>    -2.5343     0.0000   384.0000 </r>
       <r>    -2.4724     0.0000   384.0000 </r>
       <r>    -2.4105     0.0039   384.0002 </r>
       <r>    -2.3486     0.3897   384.0244 </r>
       <r>    -2.2868     3.8864   384.2648 </r>
       <r>    -2.2249    24.7869   385.7985 </r>
       <r>    -2.1630    70.8167   390.1803 </r>
       <r>    -2.1011   137.2941   398.6754 </r>
       <r>    -2.0393   182.6018   409.9739 </r>
       <r>    -1.9774    71.6464   414.4070 </r>
       <r>    -1.9155    66.1968   418.5030 </r>
       <r>    -1.8536    60.7107   422.2594 </r>
       <r>    -1.7918    16.0211   423.2507 </r>
       <r>    -1.7299    24.4577   424.7641 </r>
       <r>    -1.6680    30.5322   426.6532 </r>
       <r>    -1.6061    27.5620   428.3586 </r>
       <r>    -1.5443    58.3638   431.9699 </r>
       <r>    -1.4824    23.7849   433.4416 </r>
       <r>    -1.4205     2.2310   433.5797 </r>
       <r>    -1.3586     9.1565   434.1462 </r>
       <r>    -1.2968    16.4957   435.1669 </r>
       <r>    -1.2349     4.2522   435.4300 </r>
       <r>    -1.1730    14.8757   436.3504 </r>
       <r>    -1.1111    19.6823   437.5683 </r>
       <r>    -1.0493    18.3093   438.7012 </r>
       <r>    -0.9874    12.0531   439.4469 </r>
       <r>    -0.9255    16.7877   440.4857 </r>
       <r>    -0.8636     3.8598   440.7245 </r>
       <r>    -0.8018     9.7661   441.3288 </r>
       <r>    -0.7399     9.8050   441.9355 </r>
       <r>    -0.6780     1.0482   442.0003 </r>
       <r>    -0.6161     2.1324   442.1323 </r>
       <r>    -0.5543    21.5540   443.4659 </r>
       <r>    -0.4924    30.8578   445.3753 </r>
       <r>    -0.4305    41.8616   447.9655 </r>
       <r>    -0.3686    45.7363   450.7954 </r>
       <r>    -0.3068    71.0378   455.1909 </r>
       <r>    -0.2449    74.6117   459.8075 </r>
       <r>    -0.1830    59.1280   463.4660 </r>
       <r>    -0.1211    79.2534   468.3698 </r>
       <r>    -0.0593    51.3415   471.5466 </r>
       <r>     0.0026    23.9077   473.0259 </r>
       <r>     0.0645    59.7121   476.7206 </r>
       <r>     0.1264    75.1035   481.3676 </r>
       <r>     0.1882    85.1064   486.6336 </r>
       <r>     0.2501    98.8657   492.7509 </r>
       <r>     0.3120    99.4934   498.9071 </r>
       <r>     0.3739    93.6081   504.6991 </r>
       <r>     0.4357    52.1357   507.9250 </r>
       <r>     0.4976    49.5024   510.9879 </r>
       <r>     0.5595    76.8940   515.7458 </r>
       <r>     0.6214    72.1450   520.2098 </r>
       <r>     0.6832   106.9372   526.8265 </r>
       <r>     0.7451    89.1161   532.3406 </r>
       <r>     0.8070    78.6021   537.2041 </r>
       <r>     0.8689    49.3487   540.2575 </r>
       <r>     0.9307    68.4322   544.4918 </r>
       <r>     0.9926    61.3107   548.2854 </r>
       <r>     1.0545    82.4257   553.3855 </r>
       <r>     1.1164   108.2561   560.0839 </r>
       <r>     1.1782    31.1685   562.0124 </r>
       <r>     1.2401    32.6332   564.0316 </r>
       <r>     1.3020    37.1663   566.3313 </r>
       <r>     1.3639    26.8487   567.9925 </r>
       <r>     1.4257    44.2812   570.7324 </r>
       <r>     1.4876    30.1326   572.5969 </r>
       <r>     1.5495    11.8524   573.3303 </r>
       <r>     1.6114    18.2756   574.4611 </r>
       <r>     1.6732    11.5570   575.1762 </r>
       <r>     1.7351     9.4043   575.7580 </r>
       <r>     1.7970     3.4271   575.9701 </r>
       <r>     1.8589     0.4759   575.9995 </r>
       <r>     1.9207     0.0073   576.0000 </r>
       <r>     1.9826     0.0000   576.0000 </r>
       <r>     2.0445     0.0000   576.0000 </r>
       <r>     2.1064     0.0000   576.0000 </r>
       <r>     2.1682     0.0000   576.0000 </r>
       <r>     2.2301     0.0056   576.0003 </r>
       <r>     2.2920     0.2316   576.0147 </r>
       <r>     2.3539     0.7402   576.0605 </r>
       <r>     2.4157     0.2150   576.0738 </r>
       <r>     2.4776     0.0048   576.0741 </r>
       <r>     2.5395     0.0000   576.0741 </r>
       <r>     2.6014     0.0000   576.0741 </r>
       <r>     2.6632     0.0000   576.0741 </r>
       <r>     2.7251     0.0000   576.0741 </r>
       <r>     2.7870     0.0000   576.0741 </r>
       <r>     2.8489     0.0000   576.0741 </r>
       <r>     2.9107     0.0000   576.0741 </r>
       <r>     2.9726     0.0005   576.0741 </r>
       <r>     3.0345     0.1472   576.0832 </r>
       <r>     3.0964     2.6184   576.2452 </r>
       <r>     3.1582     3.8966   576.4863 </r>
       <r>     3.2201     0.5156   576.5182 </r>
       <r>     3.2820     0.0803   576.5232 </r>
       <r>     3.3439     2.9525   576.7059 </r>
       <r>     3.4057    10.0705   577.3290 </r>
       <r>     3.4676     8.9276   577.8814 </r>
       <r>     3.5295     5.8222   578.2416 </r>
       <r>     3.5914     5.2574   578.5669 </r>
       <r>     3.6532     4.7288   578.8595 </r>
       <r>     3.7151     0.4764   578.8890 </r>
       <r>     3.7770     1.0696   578.9552 </r>
       <r>     3.8389    18.2934   580.0871 </r>
       <r>     3.9007    53.4015   583.3913 </r>
       <r>     3.9626    38.5917   585.7792 </r>
       <r>     4.0245    16.7057   586.8128 </r>
       <r>     4.0864    19.8180   588.0391 </r>
       <r>     4.1482     3.0555   588.2282 </r>
       <r>     4.2101     4.0034   588.4759 </r>
       <r>     4.2720    17.2361   589.5423 </r>
       <r>     4.3339    40.0918   592.0230 </r>
       <r>     4.3957    47.2724   594.9480 </r>
       <r>     4.4576    53.9120   598.2838 </r>
       <r>     4.5195    40.2736   600.7758 </r>
       <r>     4.5814    28.4557   602.5365 </r>
       <r>     4.6432    53.3944   605.8402 </r>
       <r>     4.7051    88.2827   611.3027 </r>
       <r>     4.7670    97.8980   617.3602 </r>
       <r>     4.8289   103.7991   623.7828 </r>
       <r>     4.8907    54.9940   627.1855 </r>
       <r>     4.9526    76.4820   631.9179 </r>
       <r>     5.0145    36.1191   634.1527 </r>
       <r>     5.0764    19.8733   635.3824 </r>
       <r>     5.1382    27.2870   637.0708 </r>
       <r>     5.2001    30.8170   638.9776 </r>
       <r>     5.2620    17.3715   640.0525 </r>
       <r>     5.3239    40.6500   642.5677 </r>
       <r>     5.3857    28.5397   644.3336 </r>
       <r>     5.4476    40.6020   646.8458 </r>
       <r>     5.5095    42.9182   649.5014 </r>
       <r>     5.5714    21.4162   650.8265 </r>
       <r>     5.6332    29.9475   652.6795 </r>
       <r>     5.6951    19.6044   653.8926 </r>
       <r>     5.7570    18.7220   655.0510 </r>
       <r>     5.8189    25.7319   656.6432 </r>
       <r>     5.8807    32.2579   658.6391 </r>
       <r>     5.9426    20.0079   659.8771 </r>
       <r>     6.0045    11.9661   660.6175 </r>
       <r>     6.0664     2.2240   660.7551 </r>
       <r>     6.1283     8.3835   661.2738 </r>
       <r>     6.1901    62.4808   665.1399 </r>
       <r>     6.2520   114.5601   672.2283 </r>
       <r>     6.3139    34.3478   674.3535 </r>
       <r>     6.3758     5.2216   674.6766 </r>
       <r>     6.4376    44.5109   677.4307 </r>
       <r>     6.4995    99.2336   683.5708 </r>
       <r>     6.5614    88.7619   689.0630 </r>
       <r>     6.6233    66.0956   693.1527 </r>
       <r>     6.6851    31.3152   695.0903 </r>
       <r>     6.7470    56.6283   698.5942 </r>
       <r>     6.8089    65.6257   702.6548 </r>
       <r>     6.8708    54.1841   706.0074 </r>
       <r>     6.9326    39.1809   708.4317 </r>
       <r>     6.9945    39.3029   710.8636 </r>
       <r>     7.0564    27.6199   712.5726 </r>
       <r>     7.1183    87.6160   717.9938 </r>
       <r>     7.1801   100.4198   724.2073 </r>
       <r>     7.2420    71.7164   728.6448 </r>
       <r>     7.3039    74.9053   733.2796 </r>
       <r>     7.3658   101.7317   739.5742 </r>
       <r>     7.4276    95.4308   745.4790 </r>
       <r>     7.4895    41.8196   748.0666 </r>
       <r>     7.5514    56.3926   751.5559 </r>
       <r>     7.6133    66.3532   755.6615 </r>
       <r>     7.6751    49.7267   758.7384 </r>
       <r>     7.7370    58.4252   762.3534 </r>
       <r>     7.7989    59.1092   766.0108 </r>
       <r>     7.8608    29.3097   767.8244 </r>
       <r>     7.9226     2.8105   767.9983 </r>
       <r>     7.9845     0.0280   768.0000 </r>
       <r>     8.0464     0.0000   768.0000 </r>
       <r>     8.1083     0.0000   768.0000 </r>
       <r>     8.1701     0.0000   768.0000 </r>
       <r>     8.2320     0.0000   768.0000 </r>
       <r>     8.2939     0.0000   768.0000 </r>
       <r>     8.3558     0.0000   768.0000 </r>
       <r>     8.4176     0.0000   768.0000 </r>
       <r>     8.4795     0.0000   768.0000 </r>
       <r>     8.5414     0.0000   768.0000 </r>
       <r>     8.6033     0.0000   768.0000 </r>
       <r>     8.6651     0.0000   768.0000 </r>
      </set>
     </set>
    </array>
   </total>
  </dos>
 </calculation>
 <structure name="finalpos" >
  <crystal>
   <varray name="basis" >
    <v>      13.25813485       0.00000000       0.00000000 </v>
    <v>       0.00000000      13.25813485       0.00000000 </v>
    <v>       0.00000000       0.00000000      13.25813485 </v>
   </varray>
   <i name="volume">   2330.49027860 </i>
   <varray name="rec_basis" >
    <v>       0.07542539       0.00000000       0.00000000 </v>
    <v>       0.00000000       0.07542539       0.00000000 </v>
    <v>       0.00000000       0.00000000       0.07542539 </v>
   </varray>
  </crystal>
  <varray name="positions" >
   <v>       0.00075425       0.00000000       0.00000000 </v>
   <v>       0.50000000       0.00000000       0.00000000 </v>
   <v>       0.00000000       0.50000000       0.00000000 </v>
   <v>       0.50000000       0.50000000       0.00000000 </v>
   <v>       0.00000000       0.00000000       0.50000000 </v>
   <v>       0.50000000       0.00000000       0.50000000 </v>
   <v>       0.00000000       0.50000000       0.50000000 </v>
   <v>       0.50000000       0.50000000       0.50000000 </v>
   <v>       0.00000000       0.25000000       0.25000000 </v>
   <v>       0.50000000       0.25000000       0.25000000 </v>
   <v>       0.00000000       0.75000000       0.25000000 </v>
   <v>       0.50000000       0.75000000       0.25000000 </v>
   <v>       0.00000000       0.25000000       0.75000000 </v>
   <v>       0.50000000       0.25000000       0.75000000 </v>
   <v>       0.00000000       0.75000000       0.75000000 </v>
   <v>       0.50000000       0.75000000       0.75000000 </v>
   <v>       0.25000000       0.00000000       0.25000000 </v>
   <v>       0.75000000       0.00000000       0.25000000 </v>
   <v>       0.25000000       0.50000000       0.25000000 </v>
   <v>       0.75000000       0.50000000       0.25000000 </v>
   <v>       0.25000000       0.00000000       0.75000000 </v>
   <v>       0.75000000       0.00000000       0.75000000 </v>
   <v>       0.25000000       0.50000000       0.75000000 </v>
   <v>       0.75000000       0.50000000       0.75000000 </v>
   <v>       0.25000000       0.25000000       0.00000000 </v>
   <v>       0.75000000       0.25000000       0.00000000 </v>
   <v>       0.25000000       0.75000000       0.00000000 </v>
   <v>       0.75000000       0.75000000       0.00000000 </v>
   <v>       0.25000000       0.25000000       0.50000000 </v>
   <v>       0.75000000       0.25000000       0.50000000 </v>
   <v>       0.25000000       0.75000000       0.50000000 </v>
   <v>       0.75000000       0.75000000       0.50000000 </v>
   <v>       0.12500000       0.12500000       0.12500000 </v>
   <v>       0.62500000       0.12500000       0.12500000 </v>
   <v>       0.12500000       0.62500000       0.12500000 </v>
   <v>       0.62500000       0.62500000       0.12500000 </v>
   <v>       0.12500000       0.12500000       0.62500000 </v>
   <v>       0.62500000       0.12500000       0.62500000 </v>
   <v>       0.12500000       0.62500000       0.62500000 </v>
   <v>       0.62500000       0.62500000       0.62500000 </v>
   <v>       0.12500000       0.37500000       0.37500000 </v>
   <v>       0.62500000       0.37500000       0.37500000 </v>
   <v>       0.12500000       0.87500000       0.37500000 </v>
   <v>       0.62500000       0.87500000       0.37500000 </v>
   <v>       0.12500000       0.37500000       0.87500000 </v>
   <v>       0.62500000       0.37500000       0.87500000 </v>
   <v>       0.12500000       0.87500000       0.87500000 </v>
   <v>       0.62500000       0.87500000       0.87500000 </v>
   <v>       0.37500000       0.12500000       0.37500000 </v>
   <v>       0.87500000       0.12500000       0.37500000 </v>
   <v>       0.37500000       0.62500000       0.37500000 </v>
   <v>       0.87500000       0.62500000       0.37500000 </v>
   <v>       0.37500000       0.12500000       0.87500000 </v>
   <v>       0.87500000       0.12500000       0.87500000 </v>
   <v>       0.37500000       0.62500000       0.87500000 </v>
   <v>       0.87500000       0.62500000       0.87500000 </v>
   <v>       0.37500000       0.37500000       0.12500000 </v>
   <v>       0.87500000       0.37500000       0.12500000 </v>
   <v>       0.37500000       0.87500000       0.12500000 </v>
   <v>       0.87500000       0.87500000       0.12500000 </v>
   <v>       0.37500000       0.37500000       0.62500000 </v>
   <v>       0.87500000       0.37500000       0.62500000 </v>
   <v>       0.37500000       0.87500000       0.62500000 </v>
   <v>       0.87500000       0.87500000       0.62500000 </v>
  </varray>
 </structure>
</modeling>
