<?xml version="1.0" encoding="ISO-8859-1"?>
<modeling>
 <generator>
  <i name="program" type="string">vasp </i>
  <i name="version" type="string">6.3.0  </i>
  <i name="subversion" type="string">20Jan22 (build Feb 10 2022 15:15:41) complex                          parallel </i>
  <i name="platform" type="string">LinuxIFC </i>
  <i name="date" type="string">2023 10 05 </i>
  <i name="time" type="string">11:35:04 </i>
 </generator>
 <incar>
  <i name="EDIFF">      0.00010000</i>
  <i name="ENCUT">    360.00000000</i>
  <i type="int" name="ISMEAR">     0</i>
  <i name="SIGMA">      0.05000000</i>
 </incar>
 <primitive_cell>
  <structure name="primitive_cell" >
   <crystal>
    <varray name="basis" >
     <v>      13.12555350       0.00000000       0.00000000 </v>
     <v>       0.00000000      13.12555350       0.00000000 </v>
     <v>       0.00000000       0.00000000      13.12555350 </v>
    </varray>
    <i name="volume">   2261.27238683 </i>
    <varray name="rec_basis" >
     <v>       0.07618726       0.00000000       0.00000000 </v>
     <v>       0.00000000       0.07618726       0.00000000 </v>
     <v>       0.00000000       0.00000000       0.07618726 </v>
    </varray>
   </crystal>
   <varray name="positions" >
    <v>       0.00076187       0.00000000       0.00000000 </v>
    <v>       0.50000000       0.00000000       0.00000000 </v>
    <v>       0.00000000       0.50000000       0.00000000 </v>
    <v>       0.50000000       0.50000000       0.00000000 </v>
    <v>       0.00000000       0.00000000       0.50000000 </v>
    <v>       0.50000000       0.00000000       0.50000000 </v>
    <v>       0.00000000       0.50000000       0.50000000 </v>
    <v>       0.50000000       0.50000000       0.50000000 </v>
    <v>       0.00000000       0.25000000       0.25000000 </v>
    <v>       0.50000000       0.25000000       0.25000000 </v>
    <v>       0.00000000       0.75000000       0.25000000 </v>
    <v>       0.50000000       0.75000000       0.25000000 </v>
    <v>       0.00000000       0.25000000       0.75000000 </v>
    <v>       0.50000000       0.25000000       0.75000000 </v>
    <v>       0.00000000       0.75000000       0.75000000 </v>
    <v>       0.50000000       0.75000000       0.75000000 </v>
    <v>       0.25000000       0.00000000       0.25000000 </v>
    <v>       0.75000000       0.00000000       0.25000000 </v>
    <v>       0.25000000       0.50000000       0.25000000 </v>
    <v>       0.75000000       0.50000000       0.25000000 </v>
    <v>       0.25000000       0.00000000       0.75000000 </v>
    <v>       0.75000000       0.00000000       0.75000000 </v>
    <v>       0.25000000       0.50000000       0.75000000 </v>
    <v>       0.75000000       0.50000000       0.75000000 </v>
    <v>       0.25000000       0.25000000       0.00000000 </v>
    <v>       0.75000000       0.25000000       0.00000000 </v>
    <v>       0.25000000       0.75000000       0.00000000 </v>
    <v>       0.75000000       0.75000000       0.00000000 </v>
    <v>       0.25000000       0.25000000       0.50000000 </v>
    <v>       0.75000000       0.25000000       0.50000000 </v>
    <v>       0.25000000       0.75000000       0.50000000 </v>
    <v>       0.75000000       0.75000000       0.50000000 </v>
    <v>       0.12500000       0.12500000       0.12500000 </v>
    <v>       0.62500000       0.12500000       0.12500000 </v>
    <v>       0.12500000       0.62500000       0.12500000 </v>
    <v>       0.62500000       0.62500000       0.12500000 </v>
    <v>       0.12500000       0.12500000       0.62500000 </v>
    <v>       0.62500000       0.12500000       0.62500000 </v>
    <v>       0.12500000       0.62500000       0.62500000 </v>
    <v>       0.62500000       0.62500000       0.62500000 </v>
    <v>       0.12500000       0.37500000       0.37500000 </v>
    <v>       0.62500000       0.37500000       0.37500000 </v>
    <v>       0.12500000       0.87500000       0.37500000 </v>
    <v>       0.62500000       0.87500000       0.37500000 </v>
    <v>       0.12500000       0.37500000       0.87500000 </v>
    <v>       0.62500000       0.37500000       0.87500000 </v>
    <v>       0.12500000       0.87500000       0.87500000 </v>
    <v>       0.62500000       0.87500000       0.87500000 </v>
    <v>       0.37500000       0.12500000       0.37500000 </v>
    <v>       0.87500000       0.12500000       0.37500000 </v>
    <v>       0.37500000       0.62500000       0.37500000 </v>
    <v>       0.87500000       0.62500000       0.37500000 </v>
    <v>       0.37500000       0.12500000       0.87500000 </v>
    <v>       0.87500000       0.12500000       0.87500000 </v>
    <v>       0.37500000       0.62500000       0.87500000 </v>
    <v>       0.87500000       0.62500000       0.87500000 </v>
    <v>       0.37500000       0.37500000       0.12500000 </v>
    <v>       0.87500000       0.37500000       0.12500000 </v>
    <v>       0.37500000       0.87500000       0.12500000 </v>
    <v>       0.87500000       0.87500000       0.12500000 </v>
    <v>       0.37500000       0.37500000       0.62500000 </v>
    <v>       0.87500000       0.37500000       0.62500000 </v>
    <v>       0.37500000       0.87500000       0.62500000 </v>
    <v>       0.87500000       0.87500000       0.62500000 </v>
   </varray>
  </structure>
  <varray name="primitive_index" >
   <v type="int" >        1 </v>
   <v type="int" >        2 </v>
   <v type="int" >        3 </v>
   <v type="int" >        4 </v>
   <v type="int" >        5 </v>
   <v type="int" >        6 </v>
   <v type="int" >        7 </v>
   <v type="int" >        8 </v>
   <v type="int" >        9 </v>
   <v type="int" >       10 </v>
   <v type="int" >       11 </v>
   <v type="int" >       12 </v>
   <v type="int" >       13 </v>
   <v type="int" >       14 </v>
   <v type="int" >       15 </v>
   <v type="int" >       16 </v>
   <v type="int" >       17 </v>
   <v type="int" >       18 </v>
   <v type="int" >       19 </v>
   <v type="int" >       20 </v>
   <v type="int" >       21 </v>
   <v type="int" >       22 </v>
   <v type="int" >       23 </v>
   <v type="int" >       24 </v>
   <v type="int" >       25 </v>
   <v type="int" >       26 </v>
   <v type="int" >       27 </v>
   <v type="int" >       28 </v>
   <v type="int" >       29 </v>
   <v type="int" >       30 </v>
   <v type="int" >       31 </v>
   <v type="int" >       32 </v>
   <v type="int" >       33 </v>
   <v type="int" >       34 </v>
   <v type="int" >       35 </v>
   <v type="int" >       36 </v>
   <v type="int" >       37 </v>
   <v type="int" >       38 </v>
   <v type="int" >       39 </v>
   <v type="int" >       40 </v>
   <v type="int" >       41 </v>
   <v type="int" >       42 </v>
   <v type="int" >       43 </v>
   <v type="int" >       44 </v>
   <v type="int" >       45 </v>
   <v type="int" >       46 </v>
   <v type="int" >       47 </v>
   <v type="int" >       48 </v>
   <v type="int" >       49 </v>
   <v type="int" >       50 </v>
   <v type="int" >       51 </v>
   <v type="int" >       52 </v>
   <v type="int" >       53 </v>
   <v type="int" >       54 </v>
   <v type="int" >       55 </v>
   <v type="int" >       56 </v>
   <v type="int" >       57 </v>
   <v type="int" >       58 </v>
   <v type="int" >       59 </v>
   <v type="int" >       60 </v>
   <v type="int" >       61 </v>
   <v type="int" >       62 </v>
   <v type="int" >       63 </v>
   <v type="int" >       64 </v>
  </varray>
 </primitive_cell>
 <kpoints>
  <generation param="Gamma">
   <v type="int" name="divisions">       3        3        3 </v>
   <v name="usershift">      0.00000000       0.00000000       0.00000000 </v>
   <v name="genvec1">      0.33333333       0.00000000       0.00000000 </v>
   <v name="genvec2">      0.00000000       0.33333333       0.00000000 </v>
   <v name="genvec3">      0.00000000       0.00000000       0.33333333 </v>
   <v name="shift">      0.00000000       0.00000000       0.00000000 </v>
  </generation>
  <varray name="kpointlist" >
   <v>       0.00000000       0.00000000       0.00000000 </v>
   <v>       0.33333333       0.00000000       0.00000000 </v>
   <v>       0.00000000       0.33333333       0.00000000 </v>
   <v>       0.33333333       0.33333333       0.00000000 </v>
   <v>       0.00000000       0.33333333       0.33333333 </v>
   <v>       0.00000000      -0.33333333       0.33333333 </v>
   <v>       0.33333333       0.33333333       0.33333333 </v>
   <v>      -0.33333333      -0.33333333       0.33333333 </v>
  </varray>
  <varray name="weights" >
   <v>       0.03703704 </v>
   <v>       0.07407407 </v>
   <v>       0.14814815 </v>
   <v>       0.29629630 </v>
   <v>       0.07407407 </v>
   <v>       0.07407407 </v>
   <v>       0.14814815 </v>
   <v>       0.14814815 </v>
  </varray>
 </kpoints>
 <parameters>
  <separator name="general" >
   <i type="string" name="SYSTEM">unknown system</i>
   <i type="logical" name="LCOMPAT"> F  </i>
  </separator>
  <separator name="electronic" >
   <i type="string" name="PREC">normal</i>
   <i name="ENMAX">    360.00000000</i>
   <i name="ENAUG">    456.10600000</i>
   <i name="EDIFF">      0.00010000</i>
   <i type="int" name="IALGO">    38</i>
   <i type="int" name="IWAVPR">    10</i>
   <i type="int" name="NBANDS">   384</i>
   <i type="int" name="NBANDSLOW">    -1</i>
   <i type="int" name="NBANDSHIGH">    -1</i>
   <i name="NELECT">    576.00000000</i>
   <i type="int" name="TURBO">     0</i>
   <i type="int" name="IRESTART">     0</i>
   <i type="int" name="NREBOOT">     0</i>
   <i type="int" name="NMIN">     0</i>
   <i name="EREF">      0.00000000</i>
   <separator name="electronic smearing" >
    <i type="int" name="ISMEAR">     0</i>
    <i name="SIGMA">      0.05000000</i>
    <i name="KSPACING">      0.50000000</i>
    <i type="logical" name="KGAMMA"> T  </i>
    <i type="logical" name="KBLOWUP"> T  </i>
   </separator>
   <separator name="electronic projectors" >
    <i type="logical" name="LREAL"> F  </i>
    <v name="ROPT">      0.00000000      0.00000000</v>
    <i type="int" name="LMAXPAW">  -100</i>
    <i type="int" name="LMAXMIX">     2</i>
    <i type="logical" name="NLSPLINE"> F  </i>
   </separator>
   <separator name="electronic startup" >
    <i type="int" name="ISTART">     0</i>
    <i type="int" name="ICHARG">     2</i>
    <i type="int" name="INIWAV">     1</i>
   </separator>
   <separator name="electronic spin" >
    <i type="int" name="ISPIN">     1</i>
    <i type="logical" name="LNONCOLLINEAR"> F  </i>
    <v name="MAGMOM">      1.00000000      1.00000000      1.00000000      1.00000000      1.00000000      1.00000000      1.00000000      1.00000000      1.00000000      1.00000000      1.00000000      1.00000000      1.00000000      1.00000000      1.00000000      1.00000000      1.00000000      1.00000000      1.00000000      1.00000000
      1.00000000      1.00000000      1.00000000      1.00000000      1.00000000      1.00000000      1.00000000      1.00000000      1.00000000      1.00000000      1.00000000      1.00000000      1.00000000      1.00000000      1.00000000      1.00000000      1.00000000      1.00000000      1.00000000      1.00000000
      1.00000000      1.00000000      1.00000000      1.00000000      1.00000000      1.00000000      1.00000000      1.00000000      1.00000000      1.00000000      1.00000000      1.00000000      1.00000000      1.00000000      1.00000000      1.00000000      1.00000000      1.00000000      1.00000000      1.00000000
      1.00000000      1.00000000      1.00000000      1.00000000</v>
    <i name="NUPDOWN">     -1.00000000</i>
    <i type="logical" name="LSORBIT"> F  </i>
    <v name="SAXIS">      0.00000000      0.00000000      1.00000000</v>
    <i type="logical" name="LSPIRAL"> F  </i>
    <v name="QSPIRAL">      0.00000000      0.00000000      0.00000000</v>
    <i type="logical" name="LZEROZ"> F  </i>
   </separator>
   <separator name="electronic exchange-correlation" >
    <i type="logical" name="LASPH"> F  </i>
    <i type="logical" name="LMETAGGA"> F  </i>
   </separator>
   <separator name="electronic convergence" >
    <i type="int" name="NELM">    60</i>
    <i type="int" name="NELMDL">    -5</i>
    <i type="int" name="NELMIN">     2</i>
    <i name="ENINI">    360.00000000</i>
    <separator name="electronic convergence detail" >
     <i type="logical" name="LDIAG"> T  </i>
     <i type="logical" name="LSUBROT"> F  </i>
     <i name="WEIMIN">      0.00000000</i>
     <i name="EBREAK">      0.00000007</i>
     <i name="DEPER">      0.30000000</i>
     <i type="int" name="NRMM">     4</i>
     <i name="TIME">      0.40000000</i>
    </separator>
   </separator>
   <separator name="electronic mixer" >
    <i name="AMIX">      0.40000000</i>
    <i name="BMIX">      1.00000000</i>
    <i name="AMIN">      0.10000000</i>
    <i name="AMIX_MAG">      1.60000000</i>
    <i name="BMIX_MAG">      1.00000000</i>
    <separator name="electronic mixer details" >
     <i type="int" name="IMIX">     4</i>
     <i type="logical" name="MIXFIRST"> F  </i>
     <i type="int" name="MAXMIX">   -45</i>
     <i name="WC">    100.00000000</i>
     <i type="int" name="INIMIX">     1</i>
     <i type="int" name="MIXPRE">     1</i>
     <i type="int" name="MREMOVE">     5</i>
    </separator>
   </separator>
   <separator name="electronic dipolcorrection" >
    <i type="logical" name="LDIPOL"> F  </i>
    <i type="logical" name="LMONO"> F  </i>
    <i type="int" name="IDIPOL">     0</i>
    <i name="EPSILON">      1.00000000</i>
    <v name="DIPOL">   -100.00000000   -100.00000000   -100.00000000</v>
    <i name="EFIELD">      0.00000000</i>
   </separator>
  </separator>
  <separator name="grids" >
   <i type="int" name="NGX">    64</i>
   <i type="int" name="NGY">    64</i>
   <i type="int" name="NGZ">    64</i>
   <i type="int" name="NGXF">   128</i>
   <i type="int" name="NGYF">   128</i>
   <i type="int" name="NGZF">   128</i>
   <i type="logical" name="ADDGRID"> F  </i>
  </separator>
  <separator name="ionic" >
   <i type="int" name="NSW">     0</i>
   <i type="int" name="IBRION">    -1</i>
   <i type="int" name="MDALGO">     0</i>
   <i type="int" name="ISIF">     2</i>
   <i name="PSTRESS">      0.00000000</i>
   <i name="EDIFFG">      0.00100000</i>
   <i type="int" name="NFREE">     0</i>
   <i name="POTIM">      0.50000000</i>
   <i name="SMASS">     -3.00000000</i>
   <i name="SCALEE">      1.00000000</i>
  </separator>
  <separator name="ionic md" >
   <i name="TEBEG">      0.00010000</i>
   <i name="TEEND">      0.00010000</i>
   <i type="int" name="NBLOCK">     1</i>
   <i type="int" name="KBLOCK">     1</i>
   <i type="int" name="NPACO">   256</i>
   <i name="APACO">     10.00000000</i>
  </separator>
  <separator name="symmetry" >
   <i type="int" name="ISYM">     2</i>
   <i name="SYMPREC">      0.00001000</i>
  </separator>
  <separator name="dos" >
   <i type="int" name="LORBIT">     0</i>
   <v name="RWIGS">     -1.00000000     -1.00000000</v>
   <i type="int" name="NEDOS">   301</i>
   <i name="EMIN">     10.00000000</i>
   <i name="EMAX">    -10.00000000</i>
   <i name="EFERMI">      0.00000000</i>
  </separator>
  <separator name="writing" >
   <i type="int" name="NWRITE">     2</i>
   <i type="logical" name="LWAVE"> T  </i>
   <i type="logical" name="LDOWNSAMPLE"> F  </i>
   <i type="logical" name="LCHARG"> T  </i>
   <i type="logical" name="LPARD"> F  </i>
   <i type="logical" name="LVTOT"> F  </i>
   <i type="logical" name="LVHAR"> F  </i>
   <i type="logical" name="LELF"> F  </i>
   <i type="logical" name="LOPTICS"> F  </i>
   <v name="STM">      0.00000000      0.00000000      0.00000000      0.00000000      0.00000000      0.00000000      0.00000000</v>
  </separator>
  <separator name="performance" >
   <i type="int" name="NPAR">    48</i>
   <i type="int" name="NSIM">     4</i>
   <i type="int" name="NBLK">    -1</i>
   <i type="logical" name="LPLANE"> T  </i>
   <i type="logical" name="LSCALAPACK"> T  </i>
   <i type="logical" name="LSCAAWARE"> F  </i>
   <i type="logical" name="LSCALU"> F  </i>
   <i type="logical" name="LASYNC"> F  </i>
   <i type="logical" name="LORBITALREAL"> F  </i>
  </separator>
  <separator name="miscellaneous" >
   <i type="int" name="IDIOT">     3</i>
   <i type="int" name="PHON_NSTRUCT">    -1</i>
   <i type="logical" name="LMUSIC"> F  </i>
   <v name="POMASS">    112.41100000    127.60000000</v>
   <v name="DARWINR">      0.00000000      0.00000000</v>
   <v name="DARWINV">      1.00000000      1.00000000</v>
   <i type="logical" name="LCORR"> T  </i>
  </separator>
  <i type="logical" name="GGA_COMPAT"> T  </i>
  <i type="logical" name="LBERRY"> F  </i>
  <i type="int" name="ICORELEVEL">     0</i>
  <i type="logical" name="LDAU"> F  </i>
  <i type="int" name="I_CONSTRAINED_M">     0</i>
  <separator name="electronic exchange-correlation" >
   <i type="string" name="GGA">--</i>
   <i type="int" name="VOSKOWN">     0</i>
   <i type="logical" name="LHFCALC"> F  </i>
   <i type="string" name="PRECFOCK"></i>
   <i type="logical" name="LSYMGRAD"> F  </i>
   <i type="logical" name="LHFONE"> F  </i>
   <i type="logical" name="LRHFCALC"> F  </i>
   <i type="logical" name="LTHOMAS"> F  </i>
   <i type="logical" name="LMODELHF"> F  </i>
   <i type="logical" name="LFOCKACE"> F  </i>
   <i name="ENCUT4O">     -1.00000000</i>
   <i type="int" name="EXXOEP">     0</i>
   <i type="int" name="FOURORBIT">     0</i>
   <i name="AEXX">      0.00000000</i>
   <i name="HFALPHA">      0.00000000</i>
   <i name="MCALPHA">      0.00000000</i>
   <i name="ALDAX">      1.00000000</i>
   <i name="AGGAX">      1.00000000</i>
   <i name="ALDAC">      1.00000000</i>
   <i name="AGGAC">      1.00000000</i>
   <i type="int" name="NKREDX">     1</i>
   <i type="int" name="NKREDY">     1</i>
   <i type="int" name="NKREDZ">     1</i>
   <i type="logical" name="SHIFTRED"> F  </i>
   <i type="logical" name="ODDONLY"> F  </i>
   <i type="logical" name="EVENONLY"> F  </i>
   <i type="int" name="LMAXFOCK">     0</i>
   <i type="int" name="NMAXFOCKAE">     0</i>
   <i type="logical" name="LFOCKAEDFT"> F  </i>
   <i name="HFSCREEN">      0.00000000</i>
   <i name="HFSCREENC">      0.00000000</i>
   <i type="int" name="NBANDSGWLOW">     0</i>
  </separator>
  <separator name="vdW DFT" >
   <i type="logical" name="LUSE_VDW"> F  </i>
   <i name="Zab_VDW">     -0.84910000</i>
   <i name="PARAM1">      0.12340000</i>
   <i name="PARAM2">      1.00000000</i>
   <i name="PARAM3">      0.00000000</i>
  </separator>
  <separator name="model GW" >
   <i type="int" name="MODEL_GW">     0</i>
   <i name="MODEL_EPS0">     21.19942863</i>
   <i name="MODEL_ALPHA">      1.00000000</i>
  </separator>
  <separator name="linear response parameters" >
   <i type="logical" name="LEPSILON"> F  </i>
   <i type="logical" name="LRPA"> F  </i>
   <i type="logical" name="LNABLA"> F  </i>
   <i type="logical" name="LVEL"> F  </i>
   <i name="CSHIFT">      0.10000000</i>
   <i name="OMEGAMAX">     -1.00000000</i>
   <i name="DEG_THRESHOLD">      0.00200000</i>
   <i name="RTIME">     -0.10000000</i>
   <i name="WPLASMAI">      0.00000000</i>
   <v name="DFIELD">      0.00000000      0.00000000      0.00000000</v>
   <v name="WPLASMA">      0.00000000      0.00000000      0.00000000      0.00000000      0.00000000      0.00000000      0.00000000      0.00000000      0.00000000</v>
  </separator>
  <separator name="orbital magnetization" >
   <i type="logical" name="NUCIND"> F  </i>
   <v name="MAGPOS">      0.00000000      0.00000000      0.00000000</v>
   <i type="logical" name="LNICSALL"> T  </i>
   <i type="logical" name="ORBITALMAG"> F  </i>
   <i type="logical" name="LMAGBLOCH"> F  </i>
   <i type="logical" name="LCHIMAG"> F  </i>
   <i type="logical" name="LGAUGE"> T  </i>
   <i type="int" name="MAGATOM">     0</i>
   <v name="MAGDIPOL">      0.00000000      0.00000000      0.00000000</v>
   <v name="AVECCONST">      0.00000000      0.00000000      0.00000000</v>
  </separator>
  <separator name="response functions" >
   <i type="logical" name="LFINITE_TEMPERATURE"> F  </i>
   <i type="logical" name="LADDER"> F  </i>
   <i type="logical" name="LRPAFORCE"> F  </i>
   <i type="logical" name="LFXC"> F  </i>
   <i type="logical" name="LHARTREE"> T  </i>
   <i type="int" name="IBSE">     0</i>
   <v type="int" name="KPOINT">    -1     0     0     0</v>
   <i type="logical" name="LTCTC"> F  </i>
   <i type="logical" name="LTCTE"> F  </i>
   <i type="logical" name="LTETE"> F  </i>
   <i type="logical" name="LTRIPLET"> F  </i>
   <i type="logical" name="LFXCEPS"> F  </i>
   <i type="logical" name="LFXHEG"> F  </i>
   <i type="int" name="NATURALO">     2</i>
   <i type="logical" name="LHOLEGF"> F  </i>
   <i type="logical" name="L2ORDER"> F  </i>
   <i type="logical" name="LDMP1"> F  </i>
   <i type="logical" name="LMP2LT"> F  </i>
   <i type="logical" name="LSMP2LT"> F  </i>
   <i type="logical" name="LGWLF"> F  </i>
   <i name="ENCUTGW">     -2.00000000</i>
   <i name="ENCUTGWSOFT">     -2.00000000</i>
   <i name="ENCUTLF">     -1.00000000</i>
   <i type="logical" name="LESF_SPLINES"> F  </i>
   <i type="int" name="LMAXMP2">    -1</i>
   <i name="SCISSOR">      0.00000000</i>
   <i type="int" name="NOMEGA">     0</i>
   <i type="int" name="NOMEGAR">     0</i>
   <i type="int" name="NBANDSGW">    -1</i>
   <i type="int" name="NBANDSO">    -1</i>
   <i type="int" name="NBANDSV">    -1</i>
   <i type="int" name="NELMGW">     1</i>
   <i type="int" name="NELMHF">     1</i>
   <i type="int" name="DIM">     3</i>
   <i type="int" name="IESPILON">     4</i>
   <i type="int" name="ANTIRES">     0</i>
   <i name="OMEGAMAX">    -30.00000000</i>
   <i name="OMEGAMIN">    -30.00000000</i>
   <i name="OMEGATL">   -200.00000000</i>
   <i type="int" name="OMEGAGRID">     0</i>
   <i name="CSHIFT">     -0.10000000</i>
   <i type="logical" name="LSELFENERGY"> F  </i>
   <i type="logical" name="LSPECTRAL"> F  </i>
   <i type="logical" name="LSPECTRALGW"> F  </i>
   <i type="logical" name="LSINGLES"> F  </i>
   <i type="logical" name="LFERMIGW"> F  </i>
   <i type="logical" name="ODDONLYGW"> F  </i>
   <i type="logical" name="EVENONLYGW"> F  </i>
   <i type="int" name="NKREDLFX">     1</i>
   <i type="int" name="NKREDLFY">     1</i>
   <i type="int" name="NKREDLFZ">     1</i>
   <i type="int" name="MAXMEM">  2800</i>
   <i type="int" name="TELESCOPE">     0</i>
   <i type="int" name="NTAUPAR">    -1</i>
   <i type="int" name="NOMEGAPAR">    -1</i>
   <i name="DAMP_NEWTON">      0.80000001</i>
   <i name="LAMBDA">      1.00000000</i>
  </separator>
  <separator name="External order field" >
   <i name="OFIELD_KAPPA">      0.00000000</i>
   <v name="OFIELD_K">      0.00000000      0.00000000      0.00000000</v>
   <i name="OFIELD_Q6_NEAR">      0.00000000</i>
   <i name="OFIELD_Q6_FAR">      0.00000000</i>
   <i name="OFIELD_A">      0.00000000</i>
  </separator>
  <separator name="optional k-points parameters" >
   <i type="int" name="KPOINTS_OPT_MODE">     1</i>
   <i type="logical" name="LKPOINTS_OPT"> F  </i>
  </separator>
 </parameters>
 <atominfo>
  <atoms>      64 </atoms>
  <types>       2 </types>
  <array name="atoms" >
   <dimension dim="1">ion</dimension>
   <field type="string">element</field>
   <field type="int">atomtype</field>
   <set>
    <rc><c>Cd</c><c>   1</c></rc>
    <rc><c>Cd</c><c>   1</c></rc>
    <rc><c>Cd</c><c>   1</c></rc>
    <rc><c>Cd</c><c>   1</c></rc>
    <rc><c>Cd</c><c>   1</c></rc>
    <rc><c>Cd</c><c>   1</c></rc>
    <rc><c>Cd</c><c>   1</c></rc>
    <rc><c>Cd</c><c>   1</c></rc>
    <rc><c>Cd</c><c>   1</c></rc>
    <rc><c>Cd</c><c>   1</c></rc>
    <rc><c>Cd</c><c>   1</c></rc>
    <rc><c>Cd</c><c>   1</c></rc>
    <rc><c>Cd</c><c>   1</c></rc>
    <rc><c>Cd</c><c>   1</c></rc>
    <rc><c>Cd</c><c>   1</c></rc>
    <rc><c>Cd</c><c>   1</c></rc>
    <rc><c>Cd</c><c>   1</c></rc>
    <rc><c>Cd</c><c>   1</c></rc>
    <rc><c>Cd</c><c>   1</c></rc>
    <rc><c>Cd</c><c>   1</c></rc>
    <rc><c>Cd</c><c>   1</c></rc>
    <rc><c>Cd</c><c>   1</c></rc>
    <rc><c>Cd</c><c>   1</c></rc>
    <rc><c>Cd</c><c>   1</c></rc>
    <rc><c>Cd</c><c>   1</c></rc>
    <rc><c>Cd</c><c>   1</c></rc>
    <rc><c>Cd</c><c>   1</c></rc>
    <rc><c>Cd</c><c>   1</c></rc>
    <rc><c>Cd</c><c>   1</c></rc>
    <rc><c>Cd</c><c>   1</c></rc>
    <rc><c>Cd</c><c>   1</c></rc>
    <rc><c>Cd</c><c>   1</c></rc>
    <rc><c>Te</c><c>   2</c></rc>
    <rc><c>Te</c><c>   2</c></rc>
    <rc><c>Te</c><c>   2</c></rc>
    <rc><c>Te</c><c>   2</c></rc>
    <rc><c>Te</c><c>   2</c></rc>
    <rc><c>Te</c><c>   2</c></rc>
    <rc><c>Te</c><c>   2</c></rc>
    <rc><c>Te</c><c>   2</c></rc>
    <rc><c>Te</c><c>   2</c></rc>
    <rc><c>Te</c><c>   2</c></rc>
    <rc><c>Te</c><c>   2</c></rc>
    <rc><c>Te</c><c>   2</c></rc>
    <rc><c>Te</c><c>   2</c></rc>
    <rc><c>Te</c><c>   2</c></rc>
    <rc><c>Te</c><c>   2</c></rc>
    <rc><c>Te</c><c>   2</c></rc>
    <rc><c>Te</c><c>   2</c></rc>
    <rc><c>Te</c><c>   2</c></rc>
    <rc><c>Te</c><c>   2</c></rc>
    <rc><c>Te</c><c>   2</c></rc>
    <rc><c>Te</c><c>   2</c></rc>
    <rc><c>Te</c><c>   2</c></rc>
    <rc><c>Te</c><c>   2</c></rc>
    <rc><c>Te</c><c>   2</c></rc>
    <rc><c>Te</c><c>   2</c></rc>
    <rc><c>Te</c><c>   2</c></rc>
    <rc><c>Te</c><c>   2</c></rc>
    <rc><c>Te</c><c>   2</c></rc>
    <rc><c>Te</c><c>   2</c></rc>
    <rc><c>Te</c><c>   2</c></rc>
    <rc><c>Te</c><c>   2</c></rc>
    <rc><c>Te</c><c>   2</c></rc>
   </set>
  </array>
  <array name="atomtypes" >
   <dimension dim="1">type</dimension>
   <field type="int">atomspertype</field>
   <field type="string">element</field>
   <field>mass</field>
   <field>valence</field>
   <field type="string">pseudopotential</field>
   <set>
    <rc><c>  32</c><c>Cd</c><c>    112.41100000</c><c>     12.00000000</c><c>  PAW_PBE Cd 06Sep2000                  </c></rc>
    <rc><c>  32</c><c>Te</c><c>    127.60000000</c><c>      6.00000000</c><c>  PAW_PBE Te 08Apr2002                  </c></rc>
   </set>
  </array>
 </atominfo>
 <structure name="initialpos" >
  <crystal>
   <varray name="basis" >
    <v>      13.12555350       0.00000000       0.00000000 </v>
    <v>       0.00000000      13.12555350       0.00000000 </v>
    <v>       0.00000000       0.00000000      13.12555350 </v>
   </varray>
   <i name="volume">   2261.27238683 </i>
   <varray name="rec_basis" >
    <v>       0.07618726       0.00000000       0.00000000 </v>
    <v>       0.00000000       0.07618726       0.00000000 </v>
    <v>       0.00000000       0.00000000       0.07618726 </v>
   </varray>
  </crystal>
  <varray name="positions" >
   <v>       0.00076187       0.00000000       0.00000000 </v>
   <v>       0.50000000       0.00000000       0.00000000 </v>
   <v>       0.00000000       0.50000000       0.00000000 </v>
   <v>       0.50000000       0.50000000       0.00000000 </v>
   <v>       0.00000000       0.00000000       0.50000000 </v>
   <v>       0.50000000       0.00000000       0.50000000 </v>
   <v>       0.00000000       0.50000000       0.50000000 </v>
   <v>       0.50000000       0.50000000       0.50000000 </v>
   <v>       0.00000000       0.25000000       0.25000000 </v>
   <v>       0.50000000       0.25000000       0.25000000 </v>
   <v>       0.00000000       0.75000000       0.25000000 </v>
   <v>       0.50000000       0.75000000       0.25000000 </v>
   <v>       0.00000000       0.25000000       0.75000000 </v>
   <v>       0.50000000       0.25000000       0.75000000 </v>
   <v>       0.00000000       0.75000000       0.75000000 </v>
   <v>       0.50000000       0.75000000       0.75000000 </v>
   <v>       0.25000000       0.00000000       0.25000000 </v>
   <v>       0.75000000       0.00000000       0.25000000 </v>
   <v>       0.25000000       0.50000000       0.25000000 </v>
   <v>       0.75000000       0.50000000       0.25000000 </v>
   <v>       0.25000000       0.00000000       0.75000000 </v>
   <v>       0.75000000       0.00000000       0.75000000 </v>
   <v>       0.25000000       0.50000000       0.75000000 </v>
   <v>       0.75000000       0.50000000       0.75000000 </v>
   <v>       0.25000000       0.25000000       0.00000000 </v>
   <v>       0.75000000       0.25000000       0.00000000 </v>
   <v>       0.25000000       0.75000000       0.00000000 </v>
   <v>       0.75000000       0.75000000       0.00000000 </v>
   <v>       0.25000000       0.25000000       0.50000000 </v>
   <v>       0.75000000       0.25000000       0.50000000 </v>
   <v>       0.25000000       0.75000000       0.50000000 </v>
   <v>       0.75000000       0.75000000       0.50000000 </v>
   <v>       0.12500000       0.12500000       0.12500000 </v>
   <v>       0.62500000       0.12500000       0.12500000 </v>
   <v>       0.12500000       0.62500000       0.12500000 </v>
   <v>       0.62500000       0.62500000       0.12500000 </v>
   <v>       0.12500000       0.12500000       0.62500000 </v>
   <v>       0.62500000       0.12500000       0.62500000 </v>
   <v>       0.12500000       0.62500000       0.62500000 </v>
   <v>       0.62500000       0.62500000       0.62500000 </v>
   <v>       0.12500000       0.37500000       0.37500000 </v>
   <v>       0.62500000       0.37500000       0.37500000 </v>
   <v>       0.12500000       0.87500000       0.37500000 </v>
   <v>       0.62500000       0.87500000       0.37500000 </v>
   <v>       0.12500000       0.37500000       0.87500000 </v>
   <v>       0.62500000       0.37500000       0.87500000 </v>
   <v>       0.12500000       0.87500000       0.87500000 </v>
   <v>       0.62500000       0.87500000       0.87500000 </v>
   <v>       0.37500000       0.12500000       0.37500000 </v>
   <v>       0.87500000       0.12500000       0.37500000 </v>
   <v>       0.37500000       0.62500000       0.37500000 </v>
   <v>       0.87500000       0.62500000       0.37500000 </v>
   <v>       0.37500000       0.12500000       0.87500000 </v>
   <v>       0.87500000       0.12500000       0.87500000 </v>
   <v>       0.37500000       0.62500000       0.87500000 </v>
   <v>       0.87500000       0.62500000       0.87500000 </v>
   <v>       0.37500000       0.37500000       0.12500000 </v>
   <v>       0.87500000       0.37500000       0.12500000 </v>
   <v>       0.37500000       0.87500000       0.12500000 </v>
   <v>       0.87500000       0.87500000       0.12500000 </v>
   <v>       0.37500000       0.37500000       0.62500000 </v>
   <v>       0.87500000       0.37500000       0.62500000 </v>
   <v>       0.37500000       0.87500000       0.62500000 </v>
   <v>       0.87500000       0.87500000       0.62500000 </v>
  </varray>
 </structure>
 <calculation>
  <scstep>
   <time name="dav">   31.53   31.72</time>
   <time name="total">   31.56   31.76</time>
   <energy>
    <i name="alphaZ">   1547.45553725 </i>
    <i name="ewald"> -33026.64291275 </i>
    <i name="hartreedc"> -16549.56194797 </i>
    <i name="XCdc">   -728.38619999 </i>
    <i name="pawpsdc">  44941.76741987 </i>
    <i name="pawaedc"> -42629.27134123 </i>
    <i name="eentropy">     -0.02108307 </i>
    <i name="bandstr">    946.21963938 </i>
    <i name="atom">  48525.04422734 </i>
    <i name="e_fr_energy">   3026.60333883 </i>
    <i name="e_wo_entrp">   3026.62442190 </i>
    <i name="e_0_energy">   3026.61388036 </i>
   </energy>
  </scstep>
  <scstep>
   <time name="dav">   35.10   35.32</time>
   <time name="total">   35.10   35.32</time>
   <energy>
    <i name="e_fr_energy">      6.70715730 </i>
    <i name="e_wo_entrp">      6.70715730 </i>
    <i name="e_0_energy">      6.70715730 </i>
   </energy>
  </scstep>
  <scstep>
   <time name="dav">   36.36   36.59</time>
   <time name="total">   36.36   36.59</time>
   <energy>
    <i name="e_fr_energy">   -158.51855062 </i>
    <i name="e_wo_entrp">   -158.51855062 </i>
    <i name="e_0_energy">   -158.51855062 </i>
   </energy>
  </scstep>
  <scstep>
   <time name="dav">   37.12   37.68</time>
   <time name="total">   37.12   37.68</time>
   <energy>
    <i name="e_fr_energy">   -161.12948619 </i>
    <i name="e_wo_entrp">   -161.12948619 </i>
    <i name="e_0_energy">   -161.12948619 </i>
   </energy>
  </scstep>
  <scstep>
   <time name="dav">   34.86   35.09</time>
   <time name="total">   35.12   35.35</time>
   <energy>
    <i name="e_fr_energy">   -161.16427774 </i>
    <i name="e_wo_entrp">   -161.16427774 </i>
    <i name="e_0_energy">   -161.16427774 </i>
   </energy>
  </scstep>
  <scstep>
   <time name="dav">   34.54   34.74</time>
   <time name="total">   34.85   35.06</time>
   <energy>
    <i name="e_fr_energy">   -154.10185551 </i>
    <i name="e_wo_entrp">   -154.10185551 </i>
    <i name="e_0_energy">   -154.10185551 </i>
   </energy>
  </scstep>
  <scstep>
   <time name="dav">   33.84   34.05</time>
   <time name="total">   34.15   34.36</time>
   <energy>
    <i name="e_fr_energy">   -153.71405898 </i>
    <i name="e_wo_entrp">   -153.71405898 </i>
    <i name="e_0_energy">   -153.71405898 </i>
   </energy>
  </scstep>
  <scstep>
   <time name="dav">   34.45   34.66</time>
   <time name="total">   34.77   34.98</time>
   <energy>
    <i name="e_fr_energy">   -153.68459214 </i>
    <i name="e_wo_entrp">   -153.68459214 </i>
    <i name="e_0_energy">   -153.68459214 </i>
   </energy>
  </scstep>
  <scstep>
   <time name="dav">   33.82   34.00</time>
   <time name="total">   34.12   34.31</time>
   <energy>
    <i name="e_fr_energy">   -153.68857352 </i>
    <i name="e_wo_entrp">   -153.68857352 </i>
    <i name="e_0_energy">   -153.68857352 </i>
   </energy>
  </scstep>
  <scstep>
   <time name="dav">   36.02   36.21</time>
   <time name="total">   36.32   36.52</time>
   <energy>
    <i name="e_fr_energy">   -153.68514208 </i>
    <i name="e_wo_entrp">   -153.68514208 </i>
    <i name="e_0_energy">   -153.68514208 </i>
   </energy>
  </scstep>
  <scstep>
   <time name="dav">   34.22   34.40</time>
   <time name="total">   34.50   34.71</time>
   <energy>
    <i name="e_fr_energy">   -153.68550449 </i>
    <i name="e_wo_entrp">   -153.68550449 </i>
    <i name="e_0_energy">   -153.68550449 </i>
   </energy>
  </scstep>
  <scstep>
   <time name="dav">   32.19   32.36</time>
   <time name="total">   32.50   32.66</time>
   <energy>
    <i name="e_fr_energy">   -153.68577859 </i>
    <i name="e_wo_entrp">   -153.68577859 </i>
    <i name="e_0_energy">   -153.68577859 </i>
   </energy>
  </scstep>
  <scstep>
   <time name="dav">   28.44   28.59</time>
   <time name="total">   28.72   28.89</time>
   <energy>
    <i name="e_fr_energy">   -153.68594224 </i>
    <i name="e_wo_entrp">   -153.68594224 </i>
    <i name="e_0_energy">   -153.68594224 </i>
   </energy>
  </scstep>
  <scstep>
   <time name="dav">   25.97   26.10</time>
   <time name="total">   26.02   26.18</time>
   <energy>
    <i name="alphaZ">   1547.45553725 </i>
    <i name="ewald"> -33026.64291275 </i>
    <i name="hartreedc"> -16343.53276607 </i>
    <i name="XCdc">   -726.21150506 </i>
    <i name="pawpsdc">  54885.97003928 </i>
    <i name="pawaedc"> -52559.41274154 </i>
    <i name="eentropy">     -0.00000000 </i>
    <i name="bandstr">  -2456.35583257 </i>
    <i name="atom">  48525.04422734 </i>
    <i name="e_fr_energy">   -153.68595410 </i>
    <i name="e_wo_entrp">   -153.68595410 </i>
    <i name="e_0_energy">   -153.68595410 </i>
   </energy>
  </scstep>
  <structure>
   <crystal>
    <varray name="basis" >
     <v>      13.12555350       0.00000000       0.00000000 </v>
     <v>       0.00000000      13.12555350       0.00000000 </v>
     <v>       0.00000000       0.00000000      13.12555350 </v>
    </varray>
    <i name="volume">   2261.27238683 </i>
    <varray name="rec_basis" >
     <v>       0.07618726       0.00000000       0.00000000 </v>
     <v>       0.00000000       0.07618726       0.00000000 </v>
     <v>       0.00000000       0.00000000       0.07618726 </v>
    </varray>
   </crystal>
   <varray name="positions" >
    <v>       0.00076187       0.00000000       0.00000000 </v>
    <v>       0.50000000       0.00000000       0.00000000 </v>
    <v>       0.00000000       0.50000000       0.00000000 </v>
    <v>       0.50000000       0.50000000       0.00000000 </v>
    <v>       0.00000000       0.00000000       0.50000000 </v>
    <v>       0.50000000       0.00000000       0.50000000 </v>
    <v>       0.00000000       0.50000000       0.50000000 </v>
    <v>       0.50000000       0.50000000       0.50000000 </v>
    <v>       0.00000000       0.25000000       0.25000000 </v>
    <v>       0.50000000       0.25000000       0.25000000 </v>
    <v>       0.00000000       0.75000000       0.25000000 </v>
    <v>       0.50000000       0.75000000       0.25000000 </v>
    <v>       0.00000000       0.25000000       0.75000000 </v>
    <v>       0.50000000       0.25000000       0.75000000 </v>
    <v>       0.00000000       0.75000000       0.75000000 </v>
    <v>       0.50000000       0.75000000       0.75000000 </v>
    <v>       0.25000000       0.00000000       0.25000000 </v>
    <v>       0.75000000       0.00000000       0.25000000 </v>
    <v>       0.25000000       0.50000000       0.25000000 </v>
    <v>       0.75000000       0.50000000       0.25000000 </v>
    <v>       0.25000000       0.00000000       0.75000000 </v>
    <v>       0.75000000       0.00000000       0.75000000 </v>
    <v>       0.25000000       0.50000000       0.75000000 </v>
    <v>       0.75000000       0.50000000       0.75000000 </v>
    <v>       0.25000000       0.25000000       0.00000000 </v>
    <v>       0.75000000       0.25000000       0.00000000 </v>
    <v>       0.25000000       0.75000000       0.00000000 </v>
    <v>       0.75000000       0.75000000       0.00000000 </v>
    <v>       0.25000000       0.25000000       0.50000000 </v>
    <v>       0.75000000       0.25000000       0.50000000 </v>
    <v>       0.25000000       0.75000000       0.50000000 </v>
    <v>       0.75000000       0.75000000       0.50000000 </v>
    <v>       0.12500000       0.12500000       0.12500000 </v>
    <v>       0.62500000       0.12500000       0.12500000 </v>
    <v>       0.12500000       0.62500000       0.12500000 </v>
    <v>       0.62500000       0.62500000       0.12500000 </v>
    <v>       0.12500000       0.12500000       0.62500000 </v>
    <v>       0.62500000       0.12500000       0.62500000 </v>
    <v>       0.12500000       0.62500000       0.62500000 </v>
    <v>       0.62500000       0.62500000       0.62500000 </v>
    <v>       0.12500000       0.37500000       0.37500000 </v>
    <v>       0.62500000       0.37500000       0.37500000 </v>
    <v>       0.12500000       0.87500000       0.37500000 </v>
    <v>       0.62500000       0.87500000       0.37500000 </v>
    <v>       0.12500000       0.37500000       0.87500000 </v>
    <v>       0.62500000       0.37500000       0.87500000 </v>
    <v>       0.12500000       0.87500000       0.87500000 </v>
    <v>       0.62500000       0.87500000       0.87500000 </v>
    <v>       0.37500000       0.12500000       0.37500000 </v>
    <v>       0.87500000       0.12500000       0.37500000 </v>
    <v>       0.37500000       0.62500000       0.37500000 </v>
    <v>       0.87500000       0.62500000       0.37500000 </v>
    <v>       0.37500000       0.12500000       0.87500000 </v>
    <v>       0.87500000       0.12500000       0.87500000 </v>
    <v>       0.37500000       0.62500000       0.87500000 </v>
    <v>       0.87500000       0.62500000       0.87500000 </v>
    <v>       0.37500000       0.37500000       0.12500000 </v>
    <v>       0.87500000       0.37500000       0.12500000 </v>
    <v>       0.37500000       0.87500000       0.12500000 </v>
    <v>       0.87500000       0.87500000       0.12500000 </v>
    <v>       0.37500000       0.37500000       0.62500000 </v>
    <v>       0.87500000       0.37500000       0.62500000 </v>
    <v>       0.37500000       0.87500000       0.62500000 </v>
    <v>       0.87500000       0.87500000       0.62500000 </v>
   </varray>
  </structure>
  <varray name="forces" >
   <v>      -0.04552967      -0.00000000      -0.00000000 </v>
   <v>       0.00081478      -0.00000000      -0.00000000 </v>
   <v>      -0.00010421       0.00000000      -0.00000000 </v>
   <v>       0.00049250      -0.00000000      -0.00000000 </v>
   <v>      -0.00010421      -0.00000000      -0.00000000 </v>
   <v>       0.00049250      -0.00000000      -0.00000000 </v>
   <v>      -0.00164914       0.00000000      -0.00000000 </v>
   <v>       0.00025865       0.00000000      -0.00000000 </v>
   <v>      -0.00270090       0.00124498       0.00124498 </v>
   <v>       0.00047514      -0.00022913      -0.00022913 </v>
   <v>      -0.00269622       0.00124176      -0.00124176 </v>
   <v>       0.00047776      -0.00022963       0.00022963 </v>
   <v>      -0.00269622      -0.00124176       0.00124176 </v>
   <v>       0.00047776       0.00022963      -0.00022963 </v>
   <v>      -0.00270090      -0.00124498      -0.00124498 </v>
   <v>       0.00047514       0.00022913       0.00022913 </v>
   <v>       0.00136820      -0.00124055       0.00143904 </v>
   <v>       0.00136296      -0.00124726      -0.00143589 </v>
   <v>       0.00017820       0.00022931      -0.00023057 </v>
   <v>       0.00017718       0.00023068       0.00023005 </v>
   <v>       0.00136820       0.00124055      -0.00143904 </v>
   <v>       0.00136296       0.00124726       0.00143589 </v>
   <v>       0.00017820      -0.00022931       0.00023057 </v>
   <v>       0.00017718      -0.00023068      -0.00023005 </v>
   <v>       0.00136820       0.00143904      -0.00124055 </v>
   <v>       0.00136296      -0.00143589      -0.00124726 </v>
   <v>       0.00136820      -0.00143904       0.00124055 </v>
   <v>       0.00136296       0.00143589       0.00124726 </v>
   <v>       0.00017820      -0.00023057       0.00022931 </v>
   <v>       0.00017718       0.00023005       0.00023068 </v>
   <v>       0.00017820       0.00023057      -0.00022931 </v>
   <v>       0.00017718      -0.00023005      -0.00023068 </v>
   <v>       0.01137391       0.01033279       0.01033279 </v>
   <v>      -0.00058918       0.00028244       0.00028244 </v>
   <v>       0.00034343       0.00000132      -0.00014823 </v>
   <v>      -0.00054261      -0.00039370      -0.00009481 </v>
   <v>       0.00034343      -0.00014823       0.00000132 </v>
   <v>      -0.00054261      -0.00009481      -0.00039370 </v>
   <v>       0.00034223       0.00061220       0.00061220 </v>
   <v>      -0.00019275       0.00004706       0.00004706 </v>
   <v>       0.00034223      -0.00061220      -0.00061220 </v>
   <v>      -0.00019275      -0.00004706      -0.00004706 </v>
   <v>       0.00034343       0.00014823      -0.00000132 </v>
   <v>      -0.00054261       0.00009481       0.00039370 </v>
   <v>       0.00034343      -0.00000132       0.00014823 </v>
   <v>      -0.00054261       0.00039370       0.00009481 </v>
   <v>       0.01137391      -0.01033279      -0.01033279 </v>
   <v>      -0.00058918      -0.00028244      -0.00028244 </v>
   <v>      -0.00054103       0.00009437      -0.00039167 </v>
   <v>       0.00034425       0.00014780       0.00000048 </v>
   <v>      -0.00019343      -0.00004717       0.00004717 </v>
   <v>       0.00034251      -0.00061150       0.00061150 </v>
   <v>      -0.00059076      -0.00028305       0.00028305 </v>
   <v>       0.01123492      -0.01007090       0.01007090 </v>
   <v>      -0.00054103       0.00039167      -0.00009437 </v>
   <v>       0.00034425      -0.00000048      -0.00014780 </v>
   <v>      -0.00054103      -0.00039167       0.00009437 </v>
   <v>       0.00034425       0.00000048       0.00014780 </v>
   <v>      -0.00059076       0.00028305      -0.00028305 </v>
   <v>       0.01123492       0.01007090      -0.01007090 </v>
   <v>      -0.00019343       0.00004717      -0.00004717 </v>
   <v>       0.00034251       0.00061150      -0.00061150 </v>
   <v>      -0.00054103      -0.00009437       0.00039167 </v>
   <v>       0.00034425      -0.00014780      -0.00000048 </v>
  </varray>
  <varray name="stress" >
   <v>       7.32043879      -0.00000000       0.00000000 </v>
   <v>      -0.00000000       7.32137990       0.03881692 </v>
   <v>       0.00000000       0.03881692       7.32137990 </v>
  </varray>
  <energy>
   <i name="e_fr_energy">   -153.68595410 </i>
   <i name="e_wo_entrp">   -153.68595410 </i>
   <i name="e_0_energy">   -153.68595410 </i>
  </energy>
  <time name="totalsc">  532.98  537.19</time>
  <eigenvalues>
   <array>
    <dimension dim="1">band</dimension>
    <dimension dim="2">kpoint</dimension>
    <dimension dim="3">spin</dimension>
    <field>eigene</field>
    <field>occ</field>
    <set>
     <set comment="spin 1">
      <set comment="kpoint 1">
       <r>   -8.9536    1.0000 </r>
       <r>   -8.7134    1.0000 </r>
       <r>   -8.7127    1.0000 </r>
       <r>   -8.7116    1.0000 </r>
       <r>   -8.7116    1.0000 </r>
       <r>   -8.7107    1.0000 </r>
       <r>   -8.7101    1.0000 </r>
       <r>   -8.5969    1.0000 </r>
       <r>   -8.5967    1.0000 </r>
       <r>   -8.5935    1.0000 </r>
       <r>   -8.5935    1.0000 </r>
       <r>   -8.5934    1.0000 </r>
       <r>   -8.5934    1.0000 </r>
       <r>   -8.5934    1.0000 </r>
       <r>   -8.5934    1.0000 </r>
       <r>   -8.5932    1.0000 </r>
       <r>   -8.5932    1.0000 </r>
       <r>   -8.5919    1.0000 </r>
       <r>   -8.5919    1.0000 </r>
       <r>   -8.5912    1.0000 </r>
       <r>   -8.5912    1.0000 </r>
       <r>   -8.5888    1.0000 </r>
       <r>   -8.5884    1.0000 </r>
       <r>   -8.4842    1.0000 </r>
       <r>   -8.4818    1.0000 </r>
       <r>   -8.4818    1.0000 </r>
       <r>   -8.4818    1.0000 </r>
       <r>   -8.4817    1.0000 </r>
       <r>   -8.4810    1.0000 </r>
       <r>   -8.4805    1.0000 </r>
       <r>   -8.4803    1.0000 </r>
       <r>   -8.4782    1.0000 </r>
       <r>   -6.1409    1.0000 </r>
       <r>   -6.1407    1.0000 </r>
       <r>   -6.1406    1.0000 </r>
       <r>   -6.0846    1.0000 </r>
       <r>   -6.0844    1.0000 </r>
       <r>   -6.0843    1.0000 </r>
       <r>   -6.0843    1.0000 </r>
       <r>   -6.0843    1.0000 </r>
       <r>   -6.0842    1.0000 </r>
       <r>   -6.0842    1.0000 </r>
       <r>   -6.0840    1.0000 </r>
       <r>   -6.0726    1.0000 </r>
       <r>   -6.0722    1.0000 </r>
       <r>   -6.0720    1.0000 </r>
       <r>   -6.0720    1.0000 </r>
       <r>   -6.0719    1.0000 </r>
       <r>   -6.0719    1.0000 </r>
       <r>   -6.0718    1.0000 </r>
       <r>   -6.0717    1.0000 </r>
       <r>   -6.0717    1.0000 </r>
       <r>   -6.0716    1.0000 </r>
       <r>   -6.0715    1.0000 </r>
       <r>   -6.0714    1.0000 </r>
       <r>   -6.0700    1.0000 </r>
       <r>   -6.0699    1.0000 </r>
       <r>   -6.0697    1.0000 </r>
       <r>   -6.0697    1.0000 </r>
       <r>   -6.0696    1.0000 </r>
       <r>   -6.0695    1.0000 </r>
       <r>   -6.0695    1.0000 </r>
       <r>   -6.0695    1.0000 </r>
       <r>   -6.0694    1.0000 </r>
       <r>   -6.0693    1.0000 </r>
       <r>   -6.0692    1.0000 </r>
       <r>   -6.0690    1.0000 </r>
       <r>   -6.0676    1.0000 </r>
       <r>   -6.0675    1.0000 </r>
       <r>   -6.0674    1.0000 </r>
       <r>   -6.0674    1.0000 </r>
       <r>   -6.0674    1.0000 </r>
       <r>   -6.0673    1.0000 </r>
       <r>   -6.0672    1.0000 </r>
       <r>   -6.0671    1.0000 </r>
       <r>   -6.0671    1.0000 </r>
       <r>   -6.0671    1.0000 </r>
       <r>   -6.0669    1.0000 </r>
       <r>   -6.0667    1.0000 </r>
       <r>   -6.0315    1.0000 </r>
       <r>   -6.0313    1.0000 </r>
       <r>   -6.0313    1.0000 </r>
       <r>   -6.0313    1.0000 </r>
       <r>   -6.0313    1.0000 </r>
       <r>   -6.0310    1.0000 </r>
       <r>   -6.0248    1.0000 </r>
       <r>   -6.0246    1.0000 </r>
       <r>   -6.0246    1.0000 </r>
       <r>   -6.0246    1.0000 </r>
       <r>   -6.0246    1.0000 </r>
       <r>   -6.0244    1.0000 </r>
       <r>   -5.9971    1.0000 </r>
       <r>   -5.9971    1.0000 </r>
       <r>   -5.9970    1.0000 </r>
       <r>   -5.9954    1.0000 </r>
       <r>   -5.9953    1.0000 </r>
       <r>   -5.9952    1.0000 </r>
       <r>   -5.9952    1.0000 </r>
       <r>   -5.9952    1.0000 </r>
       <r>   -5.9951    1.0000 </r>
       <r>   -5.9904    1.0000 </r>
       <r>   -5.9903    1.0000 </r>
       <r>   -5.9902    1.0000 </r>
       <r>   -5.9902    1.0000 </r>
       <r>   -5.9902    1.0000 </r>
       <r>   -5.9899    1.0000 </r>
       <r>   -5.9331    1.0000 </r>
       <r>   -5.9330    1.0000 </r>
       <r>   -5.9328    1.0000 </r>
       <r>   -5.9328    1.0000 </r>
       <r>   -5.9327    1.0000 </r>
       <r>   -5.9326    1.0000 </r>
       <r>   -5.9143    1.0000 </r>
       <r>   -5.9141    1.0000 </r>
       <r>   -5.9141    1.0000 </r>
       <r>   -5.9139    1.0000 </r>
       <r>   -5.9138    1.0000 </r>
       <r>   -5.9138    1.0000 </r>
       <r>   -5.9138    1.0000 </r>
       <r>   -5.9138    1.0000 </r>
       <r>   -5.9138    1.0000 </r>
       <r>   -5.9137    1.0000 </r>
       <r>   -5.9137    1.0000 </r>
       <r>   -5.9137    1.0000 </r>
       <r>   -5.9128    1.0000 </r>
       <r>   -5.9127    1.0000 </r>
       <r>   -5.9127    1.0000 </r>
       <r>   -5.9127    1.0000 </r>
       <r>   -5.9127    1.0000 </r>
       <r>   -5.9126    1.0000 </r>
       <r>   -5.9126    1.0000 </r>
       <r>   -5.9126    1.0000 </r>
       <r>   -5.9125    1.0000 </r>
       <r>   -5.9124    1.0000 </r>
       <r>   -5.9123    1.0000 </r>
       <r>   -5.9122    1.0000 </r>
       <r>   -5.9065    1.0000 </r>
       <r>   -5.9065    1.0000 </r>
       <r>   -5.9059    1.0000 </r>
       <r>   -5.9059    1.0000 </r>
       <r>   -5.9058    1.0000 </r>
       <r>   -5.9058    1.0000 </r>
       <r>   -5.9057    1.0000 </r>
       <r>   -5.9056    1.0000 </r>
       <r>   -5.8991    1.0000 </r>
       <r>   -5.8991    1.0000 </r>
       <r>   -5.8991    1.0000 </r>
       <r>   -5.8990    1.0000 </r>
       <r>   -5.8990    1.0000 </r>
       <r>   -5.8990    1.0000 </r>
       <r>   -5.8990    1.0000 </r>
       <r>   -5.8990    1.0000 </r>
       <r>   -5.8934    1.0000 </r>
       <r>   -5.8934    1.0000 </r>
       <r>   -5.8932    1.0000 </r>
       <r>   -5.8932    1.0000 </r>
       <r>   -5.8930    1.0000 </r>
       <r>   -5.8930    1.0000 </r>
       <r>   -5.8792    1.0000 </r>
       <r>   -5.8792    1.0000 </r>
       <r>   -5.8791    1.0000 </r>
       <r>   -5.8765    1.0000 </r>
       <r>   -5.8764    1.0000 </r>
       <r>   -5.8763    1.0000 </r>
       <r>   -5.8763    1.0000 </r>
       <r>   -5.8761    1.0000 </r>
       <r>   -5.8760    1.0000 </r>
       <r>   -5.6496    1.0000 </r>
       <r>   -5.6496    1.0000 </r>
       <r>   -5.6495    1.0000 </r>
       <r>   -5.6495    1.0000 </r>
       <r>   -5.6494    1.0000 </r>
       <r>   -5.6494    1.0000 </r>
       <r>   -5.6493    1.0000 </r>
       <r>   -5.6493    1.0000 </r>
       <r>   -5.6492    1.0000 </r>
       <r>   -5.6492    1.0000 </r>
       <r>   -5.6491    1.0000 </r>
       <r>   -5.6491    1.0000 </r>
       <r>   -5.5852    1.0000 </r>
       <r>   -5.5851    1.0000 </r>
       <r>   -5.5850    1.0000 </r>
       <r>   -5.5849    1.0000 </r>
       <r>   -5.4586    1.0000 </r>
       <r>   -5.4584    1.0000 </r>
       <r>   -5.4583    1.0000 </r>
       <r>   -5.3877    1.0000 </r>
       <r>   -5.3877    1.0000 </r>
       <r>   -5.3876    1.0000 </r>
       <r>   -5.3876    1.0000 </r>
       <r>   -5.3875    1.0000 </r>
       <r>   -5.3875    1.0000 </r>
       <r>   -2.2037    1.0000 </r>
       <r>   -2.2030    1.0000 </r>
       <r>   -2.2026    1.0000 </r>
       <r>   -2.2019    1.0000 </r>
       <r>   -2.1164    1.0000 </r>
       <r>   -2.1164    1.0000 </r>
       <r>   -2.1164    1.0000 </r>
       <r>   -1.9966    1.0000 </r>
       <r>   -1.9965    1.0000 </r>
       <r>   -1.9962    1.0000 </r>
       <r>   -1.9962    1.0000 </r>
       <r>   -1.9959    1.0000 </r>
       <r>   -1.9958    1.0000 </r>
       <r>   -1.5567    1.0000 </r>
       <r>   -1.5557    1.0000 </r>
       <r>   -1.5556    1.0000 </r>
       <r>   -1.5555    1.0000 </r>
       <r>   -1.5550    1.0000 </r>
       <r>   -1.5550    1.0000 </r>
       <r>   -1.5549    1.0000 </r>
       <r>   -1.5549    1.0000 </r>
       <r>   -1.5544    1.0000 </r>
       <r>   -1.5543    1.0000 </r>
       <r>   -1.5542    1.0000 </r>
       <r>   -1.5532    1.0000 </r>
       <r>   -0.5854    1.0000 </r>
       <r>   -0.5854    1.0000 </r>
       <r>   -0.5851    1.0000 </r>
       <r>   -0.5851    1.0000 </r>
       <r>   -0.5848    1.0000 </r>
       <r>   -0.5847    1.0000 </r>
       <r>   -0.1662    1.0000 </r>
       <r>   -0.1659    1.0000 </r>
       <r>   -0.1653    1.0000 </r>
       <r>   -0.1653    1.0000 </r>
       <r>   -0.1648    1.0000 </r>
       <r>   -0.1644    1.0000 </r>
       <r>   -0.0300    1.0000 </r>
       <r>   -0.0297    1.0000 </r>
       <r>   -0.0296    1.0000 </r>
       <r>   -0.0296    1.0000 </r>
       <r>   -0.0295    1.0000 </r>
       <r>   -0.0293    1.0000 </r>
       <r>    0.0052    1.0000 </r>
       <r>    0.0055    1.0000 </r>
       <r>    0.0060    1.0000 </r>
       <r>    0.0064    1.0000 </r>
       <r>    0.0065    1.0000 </r>
       <r>    0.0065    1.0000 </r>
       <r>    0.0067    1.0000 </r>
       <r>    0.0067    1.0000 </r>
       <r>    0.0068    1.0000 </r>
       <r>    0.0072    1.0000 </r>
       <r>    0.0077    1.0000 </r>
       <r>    0.0080    1.0000 </r>
       <r>    0.2729    1.0000 </r>
       <r>    0.2734    1.0000 </r>
       <r>    0.2735    1.0000 </r>
       <r>    0.2735    1.0000 </r>
       <r>    0.2735    1.0000 </r>
       <r>    0.2741    1.0000 </r>
       <r>    1.0025    1.0000 </r>
       <r>    1.0033    1.0000 </r>
       <r>    1.0036    1.0000 </r>
       <r>    1.0041    1.0000 </r>
       <r>    1.0041    1.0000 </r>
       <r>    1.0041    1.0000 </r>
       <r>    1.0041    1.0000 </r>
       <r>    1.0041    1.0000 </r>
       <r>    1.0042    1.0000 </r>
       <r>    1.0047    1.0000 </r>
       <r>    1.0050    1.0000 </r>
       <r>    1.0057    1.0000 </r>
       <r>    1.2619    1.0000 </r>
       <r>    1.2629    1.0000 </r>
       <r>    1.2631    1.0000 </r>
       <r>    1.2632    1.0000 </r>
       <r>    1.2636    1.0000 </r>
       <r>    1.2637    1.0000 </r>
       <r>    1.2637    1.0000 </r>
       <r>    1.2637    1.0000 </r>
       <r>    1.2641    1.0000 </r>
       <r>    1.2642    1.0000 </r>
       <r>    1.2644    1.0000 </r>
       <r>    1.2653    1.0000 </r>
       <r>    1.2913    1.0000 </r>
       <r>    1.2919    1.0000 </r>
       <r>    1.2919    1.0000 </r>
       <r>    1.2921    1.0000 </r>
       <r>    1.2925    1.0000 </r>
       <r>    1.2927    1.0000 </r>
       <r>    1.2928    1.0000 </r>
       <r>    1.2935    1.0000 </r>
       <r>    2.0132    1.0000 </r>
       <r>    2.0134    1.0000 </r>
       <r>    2.0137    1.0000 </r>
       <r>    2.6675    0.0000 </r>
       <r>    3.7913    0.0000 </r>
       <r>    3.7916    0.0000 </r>
       <r>    3.7919    0.0000 </r>
       <r>    3.7921    0.0000 </r>
       <r>    4.6843    0.0000 </r>
       <r>    4.6843    0.0000 </r>
       <r>    4.6843    0.0000 </r>
       <r>    4.7007    0.0000 </r>
       <r>    4.7017    0.0000 </r>
       <r>    4.7026    0.0000 </r>
       <r>    4.8867    0.0000 </r>
       <r>    4.8871    0.0000 </r>
       <r>    4.8872    0.0000 </r>
       <r>    4.8872    0.0000 </r>
       <r>    4.8872    0.0000 </r>
       <r>    4.8876    0.0000 </r>
       <r>    5.0717    0.0000 </r>
       <r>    5.0719    0.0000 </r>
       <r>    5.0722    0.0000 </r>
       <r>    5.0722    0.0000 </r>
       <r>    5.0726    0.0000 </r>
       <r>    5.0727    0.0000 </r>
       <r>    5.0727    0.0000 </r>
       <r>    5.0728    0.0000 </r>
       <r>    5.0731    0.0000 </r>
       <r>    5.0732    0.0000 </r>
       <r>    5.0735    0.0000 </r>
       <r>    5.0737    0.0000 </r>
       <r>    5.3755    0.0000 </r>
       <r>    5.3756    0.0000 </r>
       <r>    5.3762    0.0000 </r>
       <r>    5.3762    0.0000 </r>
       <r>    5.3768    0.0000 </r>
       <r>    5.3769    0.0000 </r>
       <r>    6.1330    0.0000 </r>
       <r>    6.1330    0.0000 </r>
       <r>    6.1334    0.0000 </r>
       <r>    6.1334    0.0000 </r>
       <r>    6.1338    0.0000 </r>
       <r>    6.1338    0.0000 </r>
       <r>    6.6376    0.0000 </r>
       <r>    6.6379    0.0000 </r>
       <r>    6.6381    0.0000 </r>
       <r>    6.7049    0.0000 </r>
       <r>    6.7061    0.0000 </r>
       <r>    6.7063    0.0000 </r>
       <r>    6.7063    0.0000 </r>
       <r>    6.7065    0.0000 </r>
       <r>    6.7077    0.0000 </r>
       <r>    7.2115    0.0000 </r>
       <r>    7.2116    0.0000 </r>
       <r>    7.2127    0.0000 </r>
       <r>    7.2130    0.0000 </r>
       <r>    7.2130    0.0000 </r>
       <r>    7.2130    0.0000 </r>
       <r>    7.2131    0.0000 </r>
       <r>    7.2133    0.0000 </r>
       <r>    7.2135    0.0000 </r>
       <r>    7.2135    0.0000 </r>
       <r>    7.2135    0.0000 </r>
       <r>    7.2136    0.0000 </r>
       <r>    7.2137    0.0000 </r>
       <r>    7.2137    0.0000 </r>
       <r>    7.2138    0.0000 </r>
       <r>    7.2140    0.0000 </r>
       <r>    7.2141    0.0000 </r>
       <r>    7.2143    0.0000 </r>
       <r>    7.2155    0.0000 </r>
       <r>    7.2156    0.0000 </r>
       <r>    7.5294    0.0000 </r>
       <r>    7.5302    0.0000 </r>
       <r>    7.5303    0.0000 </r>
       <r>    7.5303    0.0000 </r>
       <r>    7.5303    0.0000 </r>
       <r>    7.5311    0.0000 </r>
       <r>    7.6127    0.0000 </r>
       <r>    7.6132    0.0000 </r>
       <r>    7.6132    0.0000 </r>
       <r>    7.6141    0.0000 </r>
       <r>    7.6142    0.0000 </r>
       <r>    7.6142    0.0000 </r>
       <r>    7.6143    0.0000 </r>
       <r>    7.6143    0.0000 </r>
       <r>    7.6144    0.0000 </r>
       <r>    7.6153    0.0000 </r>
       <r>    7.6153    0.0000 </r>
       <r>    7.6158    0.0000 </r>
       <r>    7.8333    0.0000 </r>
       <r>    7.8345    0.0000 </r>
       <r>    7.8347    0.0000 </r>
       <r>    7.8348    0.0000 </r>
       <r>    7.8349    0.0000 </r>
       <r>    7.8351    0.0000 </r>
       <r>    7.8352    0.0000 </r>
       <r>    7.8366    0.0000 </r>
      </set>
      <set comment="kpoint 2">
       <r>   -8.9211    1.0000 </r>
       <r>   -8.8322    1.0000 </r>
       <r>   -8.6965    1.0000 </r>
       <r>   -8.6956    1.0000 </r>
       <r>   -8.6954    1.0000 </r>
       <r>   -8.6945    1.0000 </r>
       <r>   -8.6527    1.0000 </r>
       <r>   -8.6518    1.0000 </r>
       <r>   -8.6517    1.0000 </r>
       <r>   -8.6508    1.0000 </r>
       <r>   -8.5953    1.0000 </r>
       <r>   -8.5944    1.0000 </r>
       <r>   -8.5932    1.0000 </r>
       <r>   -8.5926    1.0000 </r>
       <r>   -8.5926    1.0000 </r>
       <r>   -8.5916    1.0000 </r>
       <r>   -8.5916    1.0000 </r>
       <r>   -8.5900    1.0000 </r>
       <r>   -8.5895    1.0000 </r>
       <r>   -8.5377    1.0000 </r>
       <r>   -8.5367    1.0000 </r>
       <r>   -8.5367    1.0000 </r>
       <r>   -8.5357    1.0000 </r>
       <r>   -8.5101    1.0000 </r>
       <r>   -8.4974    1.0000 </r>
       <r>   -8.4963    1.0000 </r>
       <r>   -8.4962    1.0000 </r>
       <r>   -8.4954    1.0000 </r>
       <r>   -8.4830    1.0000 </r>
       <r>   -8.4815    1.0000 </r>
       <r>   -8.4807    1.0000 </r>
       <r>   -8.4788    1.0000 </r>
       <r>   -6.1324    1.0000 </r>
       <r>   -6.1321    1.0000 </r>
       <r>   -6.1210    1.0000 </r>
       <r>   -6.1074    1.0000 </r>
       <r>   -6.1071    1.0000 </r>
       <r>   -6.0834    1.0000 </r>
       <r>   -6.0831    1.0000 </r>
       <r>   -6.0831    1.0000 </r>
       <r>   -6.0829    1.0000 </r>
       <r>   -6.0811    1.0000 </r>
       <r>   -6.0809    1.0000 </r>
       <r>   -6.0808    1.0000 </r>
       <r>   -6.0808    1.0000 </r>
       <r>   -6.0807    1.0000 </r>
       <r>   -6.0806    1.0000 </r>
       <r>   -6.0805    1.0000 </r>
       <r>   -6.0805    1.0000 </r>
       <r>   -6.0804    1.0000 </r>
       <r>   -6.0803    1.0000 </r>
       <r>   -6.0802    1.0000 </r>
       <r>   -6.0800    1.0000 </r>
       <r>   -6.0739    1.0000 </r>
       <r>   -6.0735    1.0000 </r>
       <r>   -6.0734    1.0000 </r>
       <r>   -6.0732    1.0000 </r>
       <r>   -6.0731    1.0000 </r>
       <r>   -6.0730    1.0000 </r>
       <r>   -6.0728    1.0000 </r>
       <r>   -6.0728    1.0000 </r>
       <r>   -6.0724    1.0000 </r>
       <r>   -6.0723    1.0000 </r>
       <r>   -6.0722    1.0000 </r>
       <r>   -6.0720    1.0000 </r>
       <r>   -6.0720    1.0000 </r>
       <r>   -6.0719    1.0000 </r>
       <r>   -6.0719    1.0000 </r>
       <r>   -6.0718    1.0000 </r>
       <r>   -6.0608    1.0000 </r>
       <r>   -6.0559    1.0000 </r>
       <r>   -6.0557    1.0000 </r>
       <r>   -6.0557    1.0000 </r>
       <r>   -6.0555    1.0000 </r>
       <r>   -6.0473    1.0000 </r>
       <r>   -6.0471    1.0000 </r>
       <r>   -6.0471    1.0000 </r>
       <r>   -6.0469    1.0000 </r>
       <r>   -6.0408    1.0000 </r>
       <r>   -6.0406    1.0000 </r>
       <r>   -6.0405    1.0000 </r>
       <r>   -6.0403    1.0000 </r>
       <r>   -6.0343    1.0000 </r>
       <r>   -6.0341    1.0000 </r>
       <r>   -6.0294    1.0000 </r>
       <r>   -6.0292    1.0000 </r>
       <r>   -6.0291    1.0000 </r>
       <r>   -6.0289    1.0000 </r>
       <r>   -6.0231    1.0000 </r>
       <r>   -6.0230    1.0000 </r>
       <r>   -6.0218    1.0000 </r>
       <r>   -6.0218    1.0000 </r>
       <r>   -6.0124    1.0000 </r>
       <r>   -6.0124    1.0000 </r>
       <r>   -6.0058    1.0000 </r>
       <r>   -6.0056    1.0000 </r>
       <r>   -6.0053    1.0000 </r>
       <r>   -6.0052    1.0000 </r>
       <r>   -5.9924    1.0000 </r>
       <r>   -5.9831    1.0000 </r>
       <r>   -5.9739    1.0000 </r>
       <r>   -5.9739    1.0000 </r>
       <r>   -5.9651    1.0000 </r>
       <r>   -5.9651    1.0000 </r>
       <r>   -5.9650    1.0000 </r>
       <r>   -5.9650    1.0000 </r>
       <r>   -5.9490    1.0000 </r>
       <r>   -5.9490    1.0000 </r>
       <r>   -5.9322    1.0000 </r>
       <r>   -5.9320    1.0000 </r>
       <r>   -5.9320    1.0000 </r>
       <r>   -5.9319    1.0000 </r>
       <r>   -5.9313    1.0000 </r>
       <r>   -5.9312    1.0000 </r>
       <r>   -5.9312    1.0000 </r>
       <r>   -5.9310    1.0000 </r>
       <r>   -5.9242    1.0000 </r>
       <r>   -5.9240    1.0000 </r>
       <r>   -5.9240    1.0000 </r>
       <r>   -5.9237    1.0000 </r>
       <r>   -5.9140    1.0000 </r>
       <r>   -5.9100    1.0000 </r>
       <r>   -5.9100    1.0000 </r>
       <r>   -5.9099    1.0000 </r>
       <r>   -5.9099    1.0000 </r>
       <r>   -5.9097    1.0000 </r>
       <r>   -5.9085    1.0000 </r>
       <r>   -5.9085    1.0000 </r>
       <r>   -5.9084    1.0000 </r>
       <r>   -5.9083    1.0000 </r>
       <r>   -5.9062    1.0000 </r>
       <r>   -5.9060    1.0000 </r>
       <r>   -5.9059    1.0000 </r>
       <r>   -5.9058    1.0000 </r>
       <r>   -5.9052    1.0000 </r>
       <r>   -5.9051    1.0000 </r>
       <r>   -5.9050    1.0000 </r>
       <r>   -5.9049    1.0000 </r>
       <r>   -5.9049    1.0000 </r>
       <r>   -5.9026    1.0000 </r>
       <r>   -5.9024    1.0000 </r>
       <r>   -5.9024    1.0000 </r>
       <r>   -5.9024    1.0000 </r>
       <r>   -5.9024    1.0000 </r>
       <r>   -5.9023    1.0000 </r>
       <r>   -5.9023    1.0000 </r>
       <r>   -5.9021    1.0000 </r>
       <r>   -5.9019    1.0000 </r>
       <r>   -5.9018    1.0000 </r>
       <r>   -5.9017    1.0000 </r>
       <r>   -5.9017    1.0000 </r>
       <r>   -5.8998    1.0000 </r>
       <r>   -5.8953    1.0000 </r>
       <r>   -5.8953    1.0000 </r>
       <r>   -5.8951    1.0000 </r>
       <r>   -5.8950    1.0000 </r>
       <r>   -5.8948    1.0000 </r>
       <r>   -5.8948    1.0000 </r>
       <r>   -5.8862    1.0000 </r>
       <r>   -5.8835    1.0000 </r>
       <r>   -5.8835    1.0000 </r>
       <r>   -5.8810    1.0000 </r>
       <r>   -5.8538    1.0000 </r>
       <r>   -5.8537    1.0000 </r>
       <r>   -5.8536    1.0000 </r>
       <r>   -5.8536    1.0000 </r>
       <r>   -5.7738    1.0000 </r>
       <r>   -5.7738    1.0000 </r>
       <r>   -5.7738    1.0000 </r>
       <r>   -5.7737    1.0000 </r>
       <r>   -5.7221    1.0000 </r>
       <r>   -5.6342    1.0000 </r>
       <r>   -5.6341    1.0000 </r>
       <r>   -5.6339    1.0000 </r>
       <r>   -5.6338    1.0000 </r>
       <r>   -5.6021    1.0000 </r>
       <r>   -5.6020    1.0000 </r>
       <r>   -5.6018    1.0000 </r>
       <r>   -5.6018    1.0000 </r>
       <r>   -5.5423    1.0000 </r>
       <r>   -5.5191    1.0000 </r>
       <r>   -5.5190    1.0000 </r>
       <r>   -5.5190    1.0000 </r>
       <r>   -5.5189    1.0000 </r>
       <r>   -5.4401    1.0000 </r>
       <r>   -5.4400    1.0000 </r>
       <r>   -5.4228    1.0000 </r>
       <r>   -5.4227    1.0000 </r>
       <r>   -5.4227    1.0000 </r>
       <r>   -5.4226    1.0000 </r>
       <r>   -5.4048    1.0000 </r>
       <r>   -5.4046    1.0000 </r>
       <r>   -2.0895    1.0000 </r>
       <r>   -2.0893    1.0000 </r>
       <r>   -2.0784    1.0000 </r>
       <r>   -2.0777    1.0000 </r>
       <r>   -2.0773    1.0000 </r>
       <r>   -2.0765    1.0000 </r>
       <r>   -2.0295    1.0000 </r>
       <r>   -2.0295    1.0000 </r>
       <r>   -1.9589    1.0000 </r>
       <r>   -1.9585    1.0000 </r>
       <r>   -1.9585    1.0000 </r>
       <r>   -1.9582    1.0000 </r>
       <r>   -1.9046    1.0000 </r>
       <r>   -1.8219    1.0000 </r>
       <r>   -1.8216    1.0000 </r>
       <r>   -1.8216    1.0000 </r>
       <r>   -1.8213    1.0000 </r>
       <r>   -1.7693    1.0000 </r>
       <r>   -1.7685    1.0000 </r>
       <r>   -1.7681    1.0000 </r>
       <r>   -1.7673    1.0000 </r>
       <r>   -1.3495    1.0000 </r>
       <r>   -1.1779    1.0000 </r>
       <r>   -1.1776    1.0000 </r>
       <r>   -1.1776    1.0000 </r>
       <r>   -1.1773    1.0000 </r>
       <r>   -0.7822    1.0000 </r>
       <r>   -0.7819    1.0000 </r>
       <r>   -0.7819    1.0000 </r>
       <r>   -0.7815    1.0000 </r>
       <r>   -0.3177    1.0000 </r>
       <r>   -0.3175    1.0000 </r>
       <r>   -0.3174    1.0000 </r>
       <r>   -0.3171    1.0000 </r>
       <r>   -0.2642    1.0000 </r>
       <r>   -0.2639    1.0000 </r>
       <r>   -0.2639    1.0000 </r>
       <r>   -0.2636    1.0000 </r>
       <r>   -0.0599    1.0000 </r>
       <r>   -0.0599    1.0000 </r>
       <r>    0.0399    1.0000 </r>
       <r>    0.0407    1.0000 </r>
       <r>    0.1583    1.0000 </r>
       <r>    0.1583    1.0000 </r>
       <r>    0.1907    1.0000 </r>
       <r>    0.1917    1.0000 </r>
       <r>    0.3001    1.0000 </r>
       <r>    0.3409    1.0000 </r>
       <r>    0.3409    1.0000 </r>
       <r>    0.3412    1.0000 </r>
       <r>    0.3412    1.0000 </r>
       <r>    0.3499    1.0000 </r>
       <r>    0.3503    1.0000 </r>
       <r>    0.3503    1.0000 </r>
       <r>    0.3507    1.0000 </r>
       <r>    0.3623    1.0000 </r>
       <r>    0.3626    1.0000 </r>
       <r>    0.4117    1.0000 </r>
       <r>    0.4121    1.0000 </r>
       <r>    0.4121    1.0000 </r>
       <r>    0.4124    1.0000 </r>
       <r>    0.6177    1.0000 </r>
       <r>    0.6180    1.0000 </r>
       <r>    0.8180    1.0000 </r>
       <r>    0.8184    1.0000 </r>
       <r>    0.8184    1.0000 </r>
       <r>    0.8189    1.0000 </r>
       <r>    0.8748    1.0000 </r>
       <r>    0.8753    1.0000 </r>
       <r>    0.8753    1.0000 </r>
       <r>    0.8758    1.0000 </r>
       <r>    0.9560    1.0000 </r>
       <r>    0.9561    1.0000 </r>
       <r>    0.9566    1.0000 </r>
       <r>    0.9566    1.0000 </r>
       <r>    1.1423    1.0000 </r>
       <r>    1.1429    1.0000 </r>
       <r>    1.1429    1.0000 </r>
       <r>    1.1435    1.0000 </r>
       <r>    1.2533    1.0000 </r>
       <r>    1.2697    1.0000 </r>
       <r>    1.2703    1.0000 </r>
       <r>    1.2711    1.0000 </r>
       <r>    1.2716    1.0000 </r>
       <r>    1.2842    1.0000 </r>
       <r>    1.2847    1.0000 </r>
       <r>    1.2855    1.0000 </r>
       <r>    1.2861    1.0000 </r>
       <r>    1.3285    1.0000 </r>
       <r>    1.3291    1.0000 </r>
       <r>    1.3291    1.0000 </r>
       <r>    1.3297    1.0000 </r>
       <r>    1.4535    1.0000 </r>
       <r>    1.4539    1.0000 </r>
       <r>    1.8476    1.0000 </r>
       <r>    1.8481    1.0000 </r>
       <r>    3.4480    0.0000 </r>
       <r>    4.1413    0.0000 </r>
       <r>    4.1417    0.0000 </r>
       <r>    4.1418    0.0000 </r>
       <r>    4.1421    0.0000 </r>
       <r>    4.3820    0.0000 </r>
       <r>    4.6480    0.0000 </r>
       <r>    4.7677    0.0000 </r>
       <r>    4.7683    0.0000 </r>
       <r>    4.7686    0.0000 </r>
       <r>    4.7688    0.0000 </r>
       <r>    4.7705    0.0000 </r>
       <r>    4.8989    0.0000 </r>
       <r>    4.9701    0.0000 </r>
       <r>    4.9701    0.0000 </r>
       <r>    4.9732    0.0000 </r>
       <r>    4.9734    0.0000 </r>
       <r>    4.9734    0.0000 </r>
       <r>    4.9735    0.0000 </r>
       <r>    5.0123    0.0000 </r>
       <r>    5.0141    0.0000 </r>
       <r>    5.0301    0.0000 </r>
       <r>    5.0301    0.0000 </r>
       <r>    5.0301    0.0000 </r>
       <r>    5.0301    0.0000 </r>
       <r>    5.1764    0.0000 </r>
       <r>    5.3437    0.0000 </r>
       <r>    5.3438    0.0000 </r>
       <r>    5.3438    0.0000 </r>
       <r>    5.3440    0.0000 </r>
       <r>    5.6522    0.0000 </r>
       <r>    5.6522    0.0000 </r>
       <r>    5.6646    0.0000 </r>
       <r>    5.6654    0.0000 </r>
       <r>    5.6654    0.0000 </r>
       <r>    5.6661    0.0000 </r>
       <r>    5.7784    0.0000 </r>
       <r>    5.8209    0.0000 </r>
       <r>    5.8209    0.0000 </r>
       <r>    5.8209    0.0000 </r>
       <r>    5.8209    0.0000 </r>
       <r>    5.8371    0.0000 </r>
       <r>    5.8387    0.0000 </r>
       <r>    6.3301    0.0000 </r>
       <r>    6.5072    0.0000 </r>
       <r>    6.5078    0.0000 </r>
       <r>    6.5078    0.0000 </r>
       <r>    6.5084    0.0000 </r>
       <r>    6.8550    0.0000 </r>
       <r>    6.8552    0.0000 </r>
       <r>    6.8552    0.0000 </r>
       <r>    6.8554    0.0000 </r>
       <r>    6.8878    0.0000 </r>
       <r>    6.8882    0.0000 </r>
       <r>    6.9857    0.0000 </r>
       <r>    6.9860    0.0000 </r>
       <r>    6.9866    0.0000 </r>
       <r>    6.9869    0.0000 </r>
       <r>    7.0745    0.0000 </r>
       <r>    7.0752    0.0000 </r>
       <r>    7.0757    0.0000 </r>
       <r>    7.0764    0.0000 </r>
       <r>    7.0839    0.0000 </r>
       <r>    7.0841    0.0000 </r>
       <r>    7.0841    0.0000 </r>
       <r>    7.0843    0.0000 </r>
       <r>    7.3343    0.0000 </r>
       <r>    7.3352    0.0000 </r>
       <r>    7.3355    0.0000 </r>
       <r>    7.3363    0.0000 </r>
       <r>    7.3465    0.0000 </r>
       <r>    7.3469    0.0000 </r>
       <r>    7.3469    0.0000 </r>
       <r>    7.3475    0.0000 </r>
       <r>    7.4165    0.0000 </r>
       <r>    7.4166    0.0000 </r>
       <r>    7.4166    0.0000 </r>
       <r>    7.4168    0.0000 </r>
       <r>    7.4519    0.0000 </r>
       <r>    7.4524    0.0000 </r>
       <r>    7.4525    0.0000 </r>
       <r>    7.4529    0.0000 </r>
       <r>    7.5366    0.0000 </r>
       <r>    7.5370    0.0000 </r>
       <r>    7.6337    0.0000 </r>
       <r>    7.6346    0.0000 </r>
       <r>    7.6348    0.0000 </r>
       <r>    7.6358    0.0000 </r>
       <r>    7.7960    0.0000 </r>
       <r>    7.7965    0.0000 </r>
       <r>    7.7965    0.0000 </r>
       <r>    7.7970    0.0000 </r>
       <r>    8.0948    0.0000 </r>
       <r>    8.0953    0.0000 </r>
       <r>    8.0953    0.0000 </r>
       <r>    8.0958    0.0000 </r>
      </set>
      <set comment="kpoint 3">
       <r>   -8.9211    1.0000 </r>
       <r>   -8.8322    1.0000 </r>
       <r>   -8.6969    1.0000 </r>
       <r>   -8.6955    1.0000 </r>
       <r>   -8.6954    1.0000 </r>
       <r>   -8.6942    1.0000 </r>
       <r>   -8.6531    1.0000 </r>
       <r>   -8.6518    1.0000 </r>
       <r>   -8.6517    1.0000 </r>
       <r>   -8.6505    1.0000 </r>
       <r>   -8.5950    1.0000 </r>
       <r>   -8.5941    1.0000 </r>
       <r>   -8.5932    1.0000 </r>
       <r>   -8.5923    1.0000 </r>
       <r>   -8.5922    1.0000 </r>
       <r>   -8.5920    1.0000 </r>
       <r>   -8.5920    1.0000 </r>
       <r>   -8.5902    1.0000 </r>
       <r>   -8.5900    1.0000 </r>
       <r>   -8.5379    1.0000 </r>
       <r>   -8.5367    1.0000 </r>
       <r>   -8.5366    1.0000 </r>
       <r>   -8.5354    1.0000 </r>
       <r>   -8.5102    1.0000 </r>
       <r>   -8.4976    1.0000 </r>
       <r>   -8.4963    1.0000 </r>
       <r>   -8.4963    1.0000 </r>
       <r>   -8.4951    1.0000 </r>
       <r>   -8.4814    1.0000 </r>
       <r>   -8.4813    1.0000 </r>
       <r>   -8.4807    1.0000 </r>
       <r>   -8.4805    1.0000 </r>
       <r>   -6.1323    1.0000 </r>
       <r>   -6.1323    1.0000 </r>
       <r>   -6.1210    1.0000 </r>
       <r>   -6.1073    1.0000 </r>
       <r>   -6.1073    1.0000 </r>
       <r>   -6.0836    1.0000 </r>
       <r>   -6.0832    1.0000 </r>
       <r>   -6.0831    1.0000 </r>
       <r>   -6.0830    1.0000 </r>
       <r>   -6.0812    1.0000 </r>
       <r>   -6.0809    1.0000 </r>
       <r>   -6.0808    1.0000 </r>
       <r>   -6.0808    1.0000 </r>
       <r>   -6.0807    1.0000 </r>
       <r>   -6.0806    1.0000 </r>
       <r>   -6.0806    1.0000 </r>
       <r>   -6.0805    1.0000 </r>
       <r>   -6.0804    1.0000 </r>
       <r>   -6.0802    1.0000 </r>
       <r>   -6.0801    1.0000 </r>
       <r>   -6.0797    1.0000 </r>
       <r>   -6.0737    1.0000 </r>
       <r>   -6.0737    1.0000 </r>
       <r>   -6.0735    1.0000 </r>
       <r>   -6.0734    1.0000 </r>
       <r>   -6.0728    1.0000 </r>
       <r>   -6.0727    1.0000 </r>
       <r>   -6.0726    1.0000 </r>
       <r>   -6.0726    1.0000 </r>
       <r>   -6.0725    1.0000 </r>
       <r>   -6.0724    1.0000 </r>
       <r>   -6.0724    1.0000 </r>
       <r>   -6.0723    1.0000 </r>
       <r>   -6.0720    1.0000 </r>
       <r>   -6.0720    1.0000 </r>
       <r>   -6.0719    1.0000 </r>
       <r>   -6.0716    1.0000 </r>
       <r>   -6.0607    1.0000 </r>
       <r>   -6.0558    1.0000 </r>
       <r>   -6.0558    1.0000 </r>
       <r>   -6.0557    1.0000 </r>
       <r>   -6.0557    1.0000 </r>
       <r>   -6.0472    1.0000 </r>
       <r>   -6.0471    1.0000 </r>
       <r>   -6.0471    1.0000 </r>
       <r>   -6.0469    1.0000 </r>
       <r>   -6.0406    1.0000 </r>
       <r>   -6.0406    1.0000 </r>
       <r>   -6.0406    1.0000 </r>
       <r>   -6.0405    1.0000 </r>
       <r>   -6.0342    1.0000 </r>
       <r>   -6.0342    1.0000 </r>
       <r>   -6.0293    1.0000 </r>
       <r>   -6.0292    1.0000 </r>
       <r>   -6.0292    1.0000 </r>
       <r>   -6.0291    1.0000 </r>
       <r>   -6.0230    1.0000 </r>
       <r>   -6.0230    1.0000 </r>
       <r>   -6.0217    1.0000 </r>
       <r>   -6.0217    1.0000 </r>
       <r>   -6.0124    1.0000 </r>
       <r>   -6.0124    1.0000 </r>
       <r>   -6.0057    1.0000 </r>
       <r>   -6.0057    1.0000 </r>
       <r>   -6.0053    1.0000 </r>
       <r>   -6.0053    1.0000 </r>
       <r>   -5.9924    1.0000 </r>
       <r>   -5.9832    1.0000 </r>
       <r>   -5.9739    1.0000 </r>
       <r>   -5.9739    1.0000 </r>
       <r>   -5.9652    1.0000 </r>
       <r>   -5.9651    1.0000 </r>
       <r>   -5.9650    1.0000 </r>
       <r>   -5.9649    1.0000 </r>
       <r>   -5.9490    1.0000 </r>
       <r>   -5.9490    1.0000 </r>
       <r>   -5.9321    1.0000 </r>
       <r>   -5.9320    1.0000 </r>
       <r>   -5.9320    1.0000 </r>
       <r>   -5.9319    1.0000 </r>
       <r>   -5.9313    1.0000 </r>
       <r>   -5.9311    1.0000 </r>
       <r>   -5.9311    1.0000 </r>
       <r>   -5.9310    1.0000 </r>
       <r>   -5.9242    1.0000 </r>
       <r>   -5.9240    1.0000 </r>
       <r>   -5.9240    1.0000 </r>
       <r>   -5.9238    1.0000 </r>
       <r>   -5.9140    1.0000 </r>
       <r>   -5.9100    1.0000 </r>
       <r>   -5.9100    1.0000 </r>
       <r>   -5.9099    1.0000 </r>
       <r>   -5.9099    1.0000 </r>
       <r>   -5.9097    1.0000 </r>
       <r>   -5.9084    1.0000 </r>
       <r>   -5.9084    1.0000 </r>
       <r>   -5.9084    1.0000 </r>
       <r>   -5.9083    1.0000 </r>
       <r>   -5.9060    1.0000 </r>
       <r>   -5.9060    1.0000 </r>
       <r>   -5.9058    1.0000 </r>
       <r>   -5.9057    1.0000 </r>
       <r>   -5.9053    1.0000 </r>
       <r>   -5.9052    1.0000 </r>
       <r>   -5.9051    1.0000 </r>
       <r>   -5.9051    1.0000 </r>
       <r>   -5.9049    1.0000 </r>
       <r>   -5.9028    1.0000 </r>
       <r>   -5.9027    1.0000 </r>
       <r>   -5.9024    1.0000 </r>
       <r>   -5.9024    1.0000 </r>
       <r>   -5.9023    1.0000 </r>
       <r>   -5.9023    1.0000 </r>
       <r>   -5.9022    1.0000 </r>
       <r>   -5.9022    1.0000 </r>
       <r>   -5.9018    1.0000 </r>
       <r>   -5.9018    1.0000 </r>
       <r>   -5.9015    1.0000 </r>
       <r>   -5.9015    1.0000 </r>
       <r>   -5.8999    1.0000 </r>
       <r>   -5.8953    1.0000 </r>
       <r>   -5.8953    1.0000 </r>
       <r>   -5.8951    1.0000 </r>
       <r>   -5.8951    1.0000 </r>
       <r>   -5.8948    1.0000 </r>
       <r>   -5.8947    1.0000 </r>
       <r>   -5.8861    1.0000 </r>
       <r>   -5.8835    1.0000 </r>
       <r>   -5.8835    1.0000 </r>
       <r>   -5.8810    1.0000 </r>
       <r>   -5.8538    1.0000 </r>
       <r>   -5.8537    1.0000 </r>
       <r>   -5.8536    1.0000 </r>
       <r>   -5.8535    1.0000 </r>
       <r>   -5.7739    1.0000 </r>
       <r>   -5.7738    1.0000 </r>
       <r>   -5.7738    1.0000 </r>
       <r>   -5.7736    1.0000 </r>
       <r>   -5.7221    1.0000 </r>
       <r>   -5.6341    1.0000 </r>
       <r>   -5.6340    1.0000 </r>
       <r>   -5.6339    1.0000 </r>
       <r>   -5.6338    1.0000 </r>
       <r>   -5.6021    1.0000 </r>
       <r>   -5.6020    1.0000 </r>
       <r>   -5.6019    1.0000 </r>
       <r>   -5.6018    1.0000 </r>
       <r>   -5.5423    1.0000 </r>
       <r>   -5.5191    1.0000 </r>
       <r>   -5.5190    1.0000 </r>
       <r>   -5.5190    1.0000 </r>
       <r>   -5.5189    1.0000 </r>
       <r>   -5.4401    1.0000 </r>
       <r>   -5.4400    1.0000 </r>
       <r>   -5.4228    1.0000 </r>
       <r>   -5.4227    1.0000 </r>
       <r>   -5.4227    1.0000 </r>
       <r>   -5.4226    1.0000 </r>
       <r>   -5.4047    1.0000 </r>
       <r>   -5.4047    1.0000 </r>
       <r>   -2.0894    1.0000 </r>
       <r>   -2.0893    1.0000 </r>
       <r>   -2.0784    1.0000 </r>
       <r>   -2.0777    1.0000 </r>
       <r>   -2.0773    1.0000 </r>
       <r>   -2.0766    1.0000 </r>
       <r>   -2.0295    1.0000 </r>
       <r>   -2.0295    1.0000 </r>
       <r>   -1.9590    1.0000 </r>
[...]
      </set>
     </set>
    </set>
   </array>
  </eigenvalues>
  <separator name="orbital magnetization" >
   <v name="MAGDIPOLOUT">      0.00000000      0.00000000      0.00000000</v>
  </separator>
  <dos>
   <i name="efermi">      2.26325744 </i>
   <total>
    <array>
     <dimension dim="1">gridpoints</dimension>
     <dimension dim="2">spin</dimension>
     <field>energy</field>
     <field>total</field>
     <field>integrated</field>
     <set>
      <set comment="spin 1">
       <r>    -9.8061     0.0000     0.0000 </r>
       <r>    -9.7436     0.0000     0.0000 </r>
       <r>    -9.6811     0.0000     0.0000 </r>
       <r>    -9.6186     0.0000     0.0000 </r>
       <r>    -9.5560     0.0000     0.0000 </r>
       <r>    -9.4935     0.0000     0.0000 </r>
       <r>    -9.4310     0.0000     0.0000 </r>
       <r>    -9.3685     0.0000     0.0000 </r>
       <r>    -9.3060     0.0000     0.0000 </r>
       <r>    -9.2435     0.0000     0.0000 </r>
       <r>    -9.1810     0.0000     0.0000 </r>
       <r>    -9.1184     0.0000     0.0000 </r>
       <r>    -9.0559     0.0028     0.0002 </r>
       <r>    -8.9934     0.3238     0.0204 </r>
       <r>    -8.9309     5.4181     0.3591 </r>
       <r>    -8.8684    19.1913     1.5589 </r>
       <r>    -8.8059    35.4888     3.7775 </r>
       <r>    -8.7433    51.9499     7.0251 </r>
       <r>    -8.6808    82.2214    12.1652 </r>
       <r>    -8.6183   136.4252    20.6939 </r>
       <r>    -8.5558   247.0897    36.1408 </r>
       <r>    -8.4933   300.9633    54.9556 </r>
       <r>    -8.4308   135.2289    63.4095 </r>
       <r>    -8.3683     9.3876    63.9964 </r>
       <r>    -8.3057     0.0581    64.0000 </r>
       <r>    -8.2432     0.0000    64.0000 </r>
       <r>    -8.1807     0.0000    64.0000 </r>
       <r>    -8.1182     0.0000    64.0000 </r>
       <r>    -8.0557     0.0000    64.0000 </r>
       <r>    -7.9932     0.0000    64.0000 </r>
       <r>    -7.9306     0.0000    64.0000 </r>
       <r>    -7.8681     0.0000    64.0000 </r>
       <r>    -7.8056     0.0000    64.0000 </r>
       <r>    -7.7431     0.0000    64.0000 </r>
       <r>    -7.6806     0.0000    64.0000 </r>
       <r>    -7.6181     0.0000    64.0000 </r>
       <r>    -7.5556     0.0000    64.0000 </r>
       <r>    -7.4930     0.0000    64.0000 </r>
       <r>    -7.4305     0.0000    64.0000 </r>
       <r>    -7.3680     0.0000    64.0000 </r>
       <r>    -7.3055     0.0000    64.0000 </r>
       <r>    -7.2430     0.0000    64.0000 </r>
       <r>    -7.1805     0.0000    64.0000 </r>
       <r>    -7.1180     0.0000    64.0000 </r>
       <r>    -7.0554     0.0000    64.0000 </r>
       <r>    -6.9929     0.0000    64.0000 </r>
       <r>    -6.9304     0.0000    64.0000 </r>
       <r>    -6.8679     0.0000    64.0000 </r>
       <r>    -6.8054     0.0000    64.0000 </r>
       <r>    -6.7429     0.0000    64.0000 </r>
       <r>    -6.6803     0.0000    64.0000 </r>
       <r>    -6.6178     0.0000    64.0000 </r>
       <r>    -6.5553     0.0000    64.0000 </r>
       <r>    -6.4928     0.0000    64.0000 </r>
       <r>    -6.4303     0.0000    64.0000 </r>
       <r>    -6.3678     0.0000    64.0000 </r>
       <r>    -6.3053     0.0000    64.0000 </r>
       <r>    -6.2427     0.0604    64.0038 </r>
       <r>    -6.1802    10.2833    64.6466 </r>
       <r>    -6.1177   219.4539    78.3659 </r>
       <r>    -6.0552   916.0006   135.6300 </r>
       <r>    -5.9927   926.6870   193.5621 </r>
       <r>    -5.9302   809.5699   244.1727 </r>
       <r>    -5.8676  1100.5784   312.9757 </r>
       <r>    -5.8051   312.3759   332.5040 </r>
       <r>    -5.7426    73.0575   337.0712 </r>
       <r>    -5.6801    77.4922   341.9156 </r>
       <r>    -5.6176   105.4565   348.5083 </r>
       <r>    -5.5551   132.4685   356.7896 </r>
       <r>    -5.4926   164.0680   367.0464 </r>
       <r>    -5.4300   173.5188   377.8939 </r>
       <r>    -5.3675    87.3974   383.3576 </r>
       <r>    -5.3050    10.1223   383.9904 </r>
       <r>    -5.2425     0.1531   384.0000 </r>
       <r>    -5.1800     0.0002   384.0000 </r>
       <r>    -5.1175     0.0000   384.0000 </r>
       <r>    -5.0549     0.0000   384.0000 </r>
       <r>    -4.9924     0.0000   384.0000 </r>
       <r>    -4.9299     0.0000   384.0000 </r>
       <r>    -4.8674     0.0000   384.0000 </r>
       <r>    -4.8049     0.0000   384.0000 </r>
       <r>    -4.7424     0.0000   384.0000 </r>
       <r>    -4.6799     0.0000   384.0000 </r>
       <r>    -4.6173     0.0000   384.0000 </r>
       <r>    -4.5548     0.0000   384.0000 </r>
       <r>    -4.4923     0.0000   384.0000 </r>
       <r>    -4.4298     0.0000   384.0000 </r>
       <r>    -4.3673     0.0000   384.0000 </r>
       <r>    -4.3048     0.0000   384.0000 </r>
       <r>    -4.2422     0.0000   384.0000 </r>
       <r>    -4.1797     0.0000   384.0000 </r>
       <r>    -4.1172     0.0000   384.0000 </r>
       <r>    -4.0547     0.0000   384.0000 </r>
       <r>    -3.9922     0.0000   384.0000 </r>
       <r>    -3.9297     0.0000   384.0000 </r>
       <r>    -3.8672     0.0000   384.0000 </r>
       <r>    -3.8046     0.0000   384.0000 </r>
       <r>    -3.7421     0.0000   384.0000 </r>
       <r>    -3.6796     0.0000   384.0000 </r>
       <r>    -3.6171     0.0000   384.0000 </r>
       <r>    -3.5546     0.0000   384.0000 </r>
       <r>    -3.4921     0.0000   384.0000 </r>
       <r>    -3.4295     0.0000   384.0000 </r>
       <r>    -3.3670     0.0000   384.0000 </r>
       <r>    -3.3045     0.0000   384.0000 </r>
       <r>    -3.2420     0.0000   384.0000 </r>
       <r>    -3.1795     0.0000   384.0000 </r>
       <r>    -3.1170     0.0000   384.0000 </r>
       <r>    -3.0545     0.0000   384.0000 </r>
       <r>    -2.9919     0.0000   384.0000 </r>
       <r>    -2.9294     0.0000   384.0000 </r>
       <r>    -2.8669     0.0000   384.0000 </r>
       <r>    -2.8044     0.0000   384.0000 </r>
       <r>    -2.7419     0.0000   384.0000 </r>
       <r>    -2.6794     0.0000   384.0000 </r>
       <r>    -2.6168     0.0000   384.0000 </r>
       <r>    -2.5543     0.0000   384.0000 </r>
       <r>    -2.4918     0.0000   384.0000 </r>
       <r>    -2.4293     0.0000   384.0000 </r>
       <r>    -2.3668     0.0000   384.0000 </r>
       <r>    -2.3043     0.0097   384.0006 </r>
       <r>    -2.2418     0.6369   384.0404 </r>
       <r>    -2.1792     4.0918   384.2962 </r>
       <r>    -2.1167    23.2266   385.7482 </r>
       <r>    -2.0542    63.2168   389.7003 </r>
       <r>    -1.9917   115.9683   396.9501 </r>
       <r>    -1.9292   175.7372   407.9363 </r>
       <r>    -1.8667    91.6955   413.6687 </r>
       <r>    -1.8041    55.7162   417.1518 </r>
       <r>    -1.7416    71.7262   421.6358 </r>
       <r>    -1.6791    19.3351   422.8446 </r>
       <r>    -1.6166    17.1409   423.9161 </r>
       <r>    -1.5541    27.6154   425.6425 </r>
       <r>    -1.4916    25.1475   427.2146 </r>
       <r>    -1.4291    41.8190   429.8289 </r>
       <r>    -1.3665    49.6040   432.9300 </r>
       <r>    -1.3040     9.2681   433.5094 </r>
       <r>    -1.2415     1.7333   433.6177 </r>
       <r>    -1.1790    12.7638   434.4156 </r>
       <r>    -1.1165    13.5087   435.2601 </r>
       <r>    -1.0540     3.6284   435.4870 </r>
       <r>    -0.9914    16.9182   436.5446 </r>
       <r>    -0.9289    20.4481   437.8229 </r>
       <r>    -0.8664    15.5800   438.7969 </r>
       <r>    -0.8039     9.0420   439.3622 </r>
       <r>    -0.7414    17.2859   440.4428 </r>
       <r>    -0.6789     4.2139   440.7063 </r>
       <r>    -0.6164     8.2918   441.2246 </r>
       <r>    -0.5538    10.6117   441.8880 </r>
       <r>    -0.4913     2.4060   442.0384 </r>
       <r>    -0.4288     7.9603   442.5361 </r>
       <r>    -0.3663    27.7848   444.2731 </r>
       <r>    -0.3038    52.2197   447.5376 </r>
       <r>    -0.2413    42.1761   450.1742 </r>
       <r>    -0.1787    60.1229   453.9328 </r>
       <r>    -0.1162    67.9228   458.1791 </r>
       <r>    -0.0537    48.9808   461.2411 </r>
       <r>     0.0088    82.9050   466.4239 </r>
       <r>     0.0713    70.2249   470.8141 </r>
       <r>     0.1338    25.5191   472.4094 </r>
       <r>     0.1963    33.2409   474.4875 </r>
       <r>     0.2589    67.8336   478.7281 </r>
       <r>     0.3214    73.8943   483.3476 </r>
       <r>     0.3839    95.7161   489.3314 </r>
       <r>     0.4464    96.6451   495.3732 </r>
       <r>     0.5089    89.9539   500.9967 </r>
       <r>     0.5714    84.1906   506.2599 </r>
       <r>     0.6340    34.6982   508.4290 </r>
       <r>     0.6965    52.0608   511.6836 </r>
       <r>     0.7590    73.8440   516.3000 </r>
       <r>     0.8215    80.3140   521.3209 </r>
       <r>     0.8840   101.6217   527.6738 </r>
       <r>     0.9465    81.0254   532.7391 </r>
       <r>     1.0090    74.2085   537.3783 </r>
       <r>     1.0716    45.6249   540.2305 </r>
       <r>     1.1341    63.7170   544.2138 </r>
       <r>     1.1966    57.6292   547.8165 </r>
       <r>     1.2591    70.2738   552.2097 </r>
       <r>     1.3216   114.0315   559.3385 </r>
       <r>     1.3841    39.3523   561.7986 </r>
       <r>     1.4467    24.2401   563.3140 </r>
       <r>     1.5092    38.9685   565.7501 </r>
       <r>     1.5717    25.2960   567.3315 </r>
       <r>     1.6342    34.2595   569.4732 </r>
       <r>     1.6967    41.5600   572.0714 </r>
       <r>     1.7592    13.5815   572.9204 </r>
       <r>     1.8217    14.9496   573.8550 </r>
       <r>     1.8843    15.0344   574.7949 </r>
       <r>     1.9468     9.8687   575.4118 </r>
       <r>     2.0093     7.1251   575.8572 </r>
       <r>     2.0718     2.1067   575.9889 </r>
       <r>     2.1343     0.1758   575.9999 </r>
       <r>     2.1968     0.0011   576.0000 </r>
       <r>     2.2594     0.0000   576.0000 </r>
       <r>     2.3219     0.0000   576.0000 </r>
       <r>     2.3844     0.0000   576.0000 </r>
       <r>     2.4469     0.0000   576.0000 </r>
       <r>     2.5094     0.0000   576.0000 </r>
       <r>     2.5719     0.0041   576.0003 </r>
       <r>     2.6344     0.2030   576.0129 </r>
       <r>     2.6970     0.7379   576.0591 </r>
       <r>     2.7595     0.2345   576.0737 </r>
       <r>     2.8220     0.0055   576.0741 </r>
       <r>     2.8845     0.0000   576.0741 </r>
       <r>     2.9470     0.0000   576.0741 </r>
       <r>     3.0095     0.0000   576.0741 </r>
       <r>     3.0720     0.0000   576.0741 </r>
       <r>     3.1346     0.0000   576.0741 </r>
       <r>     3.1971     0.0000   576.0741 </r>
       <r>     3.2596     0.0000   576.0741 </r>
       <r>     3.3221     0.0013   576.0742 </r>
       <r>     3.3846     0.2579   576.0903 </r>
       <r>     3.4471     3.2242   576.2918 </r>
       <r>     3.5097     3.3369   576.5004 </r>
       <r>     3.5722     0.2879   576.5184 </r>
       <r>     3.6347     0.1818   576.5298 </r>
       <r>     3.6972     4.4987   576.8111 </r>
       <r>     3.7597    11.9518   577.5582 </r>
       <r>     3.8222    10.1328   578.1917 </r>
       <r>     3.8847     5.6422   578.5444 </r>
       <r>     3.9473     4.9602   578.8545 </r>
       <r>     4.0098     0.5490   578.8888 </r>
       <r>     4.0723     0.7415   578.9352 </r>
       <r>     4.1348    14.3987   579.8353 </r>
       <r>     4.1973    40.0674   582.3401 </r>
       <r>     4.2598    45.0739   585.1579 </r>
       <r>     4.3224    14.2342   586.0478 </r>
       <r>     4.3849    15.5994   587.0230 </r>
       <r>     4.4474    17.4695   588.1151 </r>
       <r>     4.5099     2.2707   588.2571 </r>
       <r>     4.5724    11.1410   588.9535 </r>
       <r>     4.6349    36.7063   591.2483 </r>
       <r>     4.6974    55.4396   594.7141 </r>
       <r>     4.7600    52.1780   597.9760 </r>
       <r>     4.8225    55.0692   601.4187 </r>
       <r>     4.8850    37.4118   603.7575 </r>
       <r>     4.9475    45.8882   606.6262 </r>
       <r>     5.0100    91.4521   612.3434 </r>
       <r>     5.0725    92.8616   618.1486 </r>
       <r>     5.1351    90.6531   623.8159 </r>
       <r>     5.1976   101.8041   630.1802 </r>
       <r>     5.2601    50.3923   633.3305 </r>
       <r>     5.3226    12.0312   634.0826 </r>
       <r>     5.3851    28.1146   635.8402 </r>
       <r>     5.4476    31.3939   637.8028 </r>
       <r>     5.5101    21.1931   639.1277 </r>
       <r>     5.5727     7.9660   639.6257 </r>
       <r>     5.6352    45.9935   642.5010 </r>
       <r>     5.6977    63.2009   646.4520 </r>
       <r>     5.7602    28.9462   648.2616 </r>
       <r>     5.8227    28.5446   650.0461 </r>
       <r>     5.8852    40.5212   652.5793 </r>
       <r>     5.9478    25.3400   654.1634 </r>
       <r>     6.0103    12.9575   654.9734 </r>
       <r>     6.0728    25.6258   656.5755 </r>
       <r>     6.1353    33.3050   658.6575 </r>
       <r>     6.1978    22.1142   660.0400 </r>
       <r>     6.2603     9.7703   660.6508 </r>
       <r>     6.3228     3.2433   660.8536 </r>
       <r>     6.3854     5.8295   661.2180 </r>
       <r>     6.4479    36.7995   663.5185 </r>
       <r>     6.5104   117.9250   670.8906 </r>
       <r>     6.5729    54.6110   674.3047 </r>
       <r>     6.6354     9.0446   674.8701 </r>
       <r>     6.6979    52.0628   678.1248 </r>
       <r>     6.7605   110.0037   685.0017 </r>
       <r>     6.8230    74.7768   689.6764 </r>
       <r>     6.8855    50.3123   692.8217 </r>
       <r>     6.9480    43.9114   695.5669 </r>
       <r>     7.0105    49.9863   698.6918 </r>
       <r>     7.0730    59.2836   702.3979 </r>
       <r>     7.1355    60.8450   706.2016 </r>
       <r>     7.1981    41.4966   708.7958 </r>
       <r>     7.2606    37.0616   711.1127 </r>
       <r>     7.3231    34.1583   713.2482 </r>
       <r>     7.3856    77.4713   718.0913 </r>
       <r>     7.4481    85.4466   723.4330 </r>
       <r>     7.5106    77.3971   728.2715 </r>
       <r>     7.5732    69.5506   732.6195 </r>
       <r>     7.6357   100.1714   738.8818 </r>
       <r>     7.6982    96.1791   744.8944 </r>
       <r>     7.7607    51.7576   748.1301 </r>
       <r>     7.8232    41.0300   750.6951 </r>
       <r>     7.8857    66.3380   754.8422 </r>
       <r>     7.9482    48.9578   757.9028 </r>
       <r>     8.0108    57.3573   761.4885 </r>
       <r>     8.0733    60.8930   765.2953 </r>
       <r>     8.1358    37.4869   767.6388 </r>
       <r>     8.1983     5.7018   767.9952 </r>
       <r>     8.2608     0.0759   768.0000 </r>
       <r>     8.3233     0.0001   768.0000 </r>
       <r>     8.3859     0.0000   768.0000 </r>
       <r>     8.4484     0.0000   768.0000 </r>
       <r>     8.5109     0.0000   768.0000 </r>
       <r>     8.5734     0.0000   768.0000 </r>
       <r>     8.6359     0.0000   768.0000 </r>
       <r>     8.6984     0.0000   768.0000 </r>
       <r>     8.7609     0.0000   768.0000 </r>
       <r>     8.8235     0.0000   768.0000 </r>
       <r>     8.8860     0.0000   768.0000 </r>
       <r>     8.9485     0.0000   768.0000 </r>
      </set>
     </set>
    </array>
   </total>
  </dos>
 </calculation>
 <structure name="finalpos" >
  <crystal>
   <varray name="basis" >
    <v>      13.12555350       0.00000000       0.00000000 </v>
    <v>       0.00000000      13.12555350       0.00000000 </v>
    <v>       0.00000000       0.00000000      13.12555350 </v>
   </varray>
   <i name="volume">   2261.27238683 </i>
   <varray name="rec_basis" >
    <v>       0.07618726       0.00000000       0.00000000 </v>
    <v>       0.00000000       0.07618726       0.00000000 </v>
    <v>       0.00000000       0.00000000       0.07618726 </v>
   </varray>
  </crystal>
  <varray name="positions" >
   <v>       0.00076187       0.00000000       0.00000000 </v>
   <v>       0.50000000       0.00000000       0.00000000 </v>
   <v>       0.00000000       0.50000000       0.00000000 </v>
   <v>       0.50000000       0.50000000       0.00000000 </v>
   <v>       0.00000000       0.00000000       0.50000000 </v>
   <v>       0.50000000       0.00000000       0.50000000 </v>
   <v>       0.00000000       0.50000000       0.50000000 </v>
   <v>       0.50000000       0.50000000       0.50000000 </v>
   <v>       0.00000000       0.25000000       0.25000000 </v>
   <v>       0.50000000       0.25000000       0.25000000 </v>
   <v>       0.00000000       0.75000000       0.25000000 </v>
   <v>       0.50000000       0.75000000       0.25000000 </v>
   <v>       0.00000000       0.25000000       0.75000000 </v>
   <v>       0.50000000       0.25000000       0.75000000 </v>
   <v>       0.00000000       0.75000000       0.75000000 </v>
   <v>       0.50000000       0.75000000       0.75000000 </v>
   <v>       0.25000000       0.00000000       0.25000000 </v>
   <v>       0.75000000       0.00000000       0.25000000 </v>
   <v>       0.25000000       0.50000000       0.25000000 </v>
   <v>       0.75000000       0.50000000       0.25000000 </v>
   <v>       0.25000000       0.00000000       0.75000000 </v>
   <v>       0.75000000       0.00000000       0.75000000 </v>
   <v>       0.25000000       0.50000000       0.75000000 </v>
   <v>       0.75000000       0.50000000       0.75000000 </v>
   <v>       0.25000000       0.25000000       0.00000000 </v>
   <v>       0.75000000       0.25000000       0.00000000 </v>
   <v>       0.25000000       0.75000000       0.00000000 </v>
   <v>       0.75000000       0.75000000       0.00000000 </v>
   <v>       0.25000000       0.25000000       0.50000000 </v>
   <v>       0.75000000       0.25000000       0.50000000 </v>
   <v>       0.25000000       0.75000000       0.50000000 </v>
   <v>       0.75000000       0.75000000       0.50000000 </v>
   <v>       0.12500000       0.12500000       0.12500000 </v>
   <v>       0.62500000       0.12500000       0.12500000 </v>
   <v>       0.12500000       0.62500000       0.12500000 </v>
   <v>       0.62500000       0.62500000       0.12500000 </v>
   <v>       0.12500000       0.12500000       0.62500000 </v>
   <v>       0.62500000       0.12500000       0.62500000 </v>
   <v>       0.12500000       0.62500000       0.62500000 </v>
   <v>       0.62500000       0.62500000       0.62500000 </v>
   <v>       0.12500000       0.37500000       0.37500000 </v>
   <v>       0.62500000       0.37500000       0.37500000 </v>
   <v>       0.12500000       0.87500000       0.37500000 </v>
   <v>       0.62500000       0.87500000       0.37500000 </v>
   <v>       0.12500000       0.37500000       0.87500000 </v>
   <v>       0.62500000       0.37500000       0.87500000 </v>
   <v>       0.12500000       0.87500000       0.87500000 </v>
   <v>       0.62500000       0.87500000       0.87500000 </v>
   <v>       0.37500000       0.12500000       0.37500000 </v>
   <v>       0.87500000       0.12500000       0.37500000 </v>
   <v>       0.37500000       0.62500000       0.37500000 </v>
   <v>       0.87500000       0.62500000       0.37500000 </v>
   <v>       0.37500000       0.12500000       0.87500000 </v>
   <v>       0.87500000       0.12500000       0.87500000 </v>
   <v>       0.37500000       0.62500000       0.87500000 </v>
   <v>       0.87500000       0.62500000       0.87500000 </v>
   <v>       0.37500000       0.37500000       0.12500000 </v>
   <v>       0.87500000       0.37500000       0.12500000 </v>
   <v>       0.37500000       0.87500000       0.12500000 </v>
   <v>       0.87500000       0.87500000       0.12500000 </v>
   <v>       0.37500000       0.37500000       0.62500000 </v>
   <v>       0.87500000       0.37500000       0.62500000 </v>
   <v>       0.37500000       0.87500000       0.62500000 </v>
   <v>       0.87500000       0.87500000       0.62500000 </v>
  </varray>
 </structure>
</modeling>
