<?xml version="1.0" encoding="ISO-8859-1"?>
<modeling>
 <generator>
  <i name="program" type="string">vasp </i>
  <i name="version" type="string">6.3.0  </i>
  <i name="subversion" type="string">20Jan22 (build Feb 10 2022 15:15:41) complex                          parallel </i>
  <i name="platform" type="string">LinuxIFC </i>
  <i name="date" type="string">2023 10 04 </i>
  <i name="time" type="string">16:12:40 </i>
 </generator>
 <incar>
  <i name="EDIFF">      0.00010000</i>
  <i name="ENCUT">    400.00000000</i>
  <i type="int" name="ISMEAR">     0</i>
  <i name="SIGMA">      0.05000000</i>
 </incar>
 <primitive_cell>
  <structure name="primitive_cell" >
   <crystal>
    <varray name="basis" >
     <v>       8.15759460       0.00000000       0.00000000 </v>
     <v>       0.00000000       8.15759460       0.00000000 </v>
     <v>       0.00000000       0.00000000       8.15759460 </v>
    </varray>
    <i name="volume">    542.85814291 </i>
    <varray name="rec_basis" >
     <v>       0.12258516       0.00000000       0.00000000 </v>
     <v>       0.00000000       0.12258516       0.00000000 </v>
     <v>       0.00000000       0.00000000       0.12258516 </v>
    </varray>
   </crystal>
   <varray name="positions" >
    <v>       0.00122585       0.00000000       0.00000000 </v>
    <v>       0.50000000       0.00000000       0.00000000 </v>
    <v>       0.00000000       0.50000000       0.00000000 </v>
    <v>       0.50000000       0.50000000       0.00000000 </v>
    <v>       0.00000000       0.00000000       0.50000000 </v>
    <v>       0.50000000       0.00000000       0.50000000 </v>
    <v>       0.00000000       0.50000000       0.50000000 </v>
    <v>       0.50000000       0.50000000       0.50000000 </v>
    <v>       0.00000000       0.25000000       0.25000000 </v>
    <v>       0.50000000       0.25000000       0.25000000 </v>
    <v>       0.00000000       0.75000000       0.25000000 </v>
    <v>       0.50000000       0.75000000       0.25000000 </v>
    <v>       0.00000000       0.25000000       0.75000000 </v>
    <v>       0.50000000       0.25000000       0.75000000 </v>
    <v>       0.00000000       0.75000000       0.75000000 </v>
    <v>       0.50000000       0.75000000       0.75000000 </v>
    <v>       0.25000000       0.00000000       0.25000000 </v>
    <v>       0.75000000       0.00000000       0.25000000 </v>
    <v>       0.25000000       0.50000000       0.25000000 </v>
    <v>       0.75000000       0.50000000       0.25000000 </v>
    <v>       0.25000000       0.00000000       0.75000000 </v>
    <v>       0.75000000       0.00000000       0.75000000 </v>
    <v>       0.25000000       0.50000000       0.75000000 </v>
    <v>       0.75000000       0.50000000       0.75000000 </v>
    <v>       0.25000000       0.25000000       0.00000000 </v>
    <v>       0.75000000       0.25000000       0.00000000 </v>
    <v>       0.25000000       0.75000000       0.00000000 </v>
    <v>       0.75000000       0.75000000       0.00000000 </v>
    <v>       0.25000000       0.25000000       0.50000000 </v>
    <v>       0.75000000       0.25000000       0.50000000 </v>
    <v>       0.25000000       0.75000000       0.50000000 </v>
    <v>       0.75000000       0.75000000       0.50000000 </v>
   </varray>
  </structure>
  <varray name="primitive_index" >
   <v type="int" >        1 </v>
   <v type="int" >        2 </v>
   <v type="int" >        3 </v>
   <v type="int" >        4 </v>
   <v type="int" >        5 </v>
   <v type="int" >        6 </v>
   <v type="int" >        7 </v>
   <v type="int" >        8 </v>
   <v type="int" >        9 </v>
   <v type="int" >       10 </v>
   <v type="int" >       11 </v>
   <v type="int" >       12 </v>
   <v type="int" >       13 </v>
   <v type="int" >       14 </v>
   <v type="int" >       15 </v>
   <v type="int" >       16 </v>
   <v type="int" >       17 </v>
   <v type="int" >       18 </v>
   <v type="int" >       19 </v>
   <v type="int" >       20 </v>
   <v type="int" >       21 </v>
   <v type="int" >       22 </v>
   <v type="int" >       23 </v>
   <v type="int" >       24 </v>
   <v type="int" >       25 </v>
   <v type="int" >       26 </v>
   <v type="int" >       27 </v>
   <v type="int" >       28 </v>
   <v type="int" >       29 </v>
   <v type="int" >       30 </v>
   <v type="int" >       31 </v>
   <v type="int" >       32 </v>
  </varray>
 </primitive_cell>
 <kpoints>
  <generation param="Gamma">
   <v type="int" name="divisions">       8        8        8 </v>
   <v name="usershift">      0.00000000       0.00000000       0.00000000 </v>
   <v name="genvec1">      0.12500000       0.00000000       0.00000000 </v>
   <v name="genvec2">      0.00000000       0.12500000       0.00000000 </v>
   <v name="genvec3">      0.00000000       0.00000000       0.12500000 </v>
   <v name="shift">      0.00000000       0.00000000       0.00000000 </v>
  </generation>
  <varray name="kpointlist" >
   <v>       0.00000000       0.00000000       0.00000000 </v>
   <v>       0.12500000       0.00000000       0.00000000 </v>
   <v>       0.00000000       0.12500000       0.00000000 </v>
   <v>       0.25000000       0.00000000       0.00000000 </v>
   <v>       0.00000000       0.25000000       0.00000000 </v>
   <v>       0.37500000       0.00000000       0.00000000 </v>
   <v>       0.00000000       0.37500000       0.00000000 </v>
   <v>       0.50000000       0.00000000       0.00000000 </v>
   <v>       0.00000000       0.50000000       0.00000000 </v>
   <v>       0.12500000       0.12500000       0.00000000 </v>
   <v>       0.00000000       0.12500000       0.12500000 </v>
   <v>       0.25000000       0.12500000       0.00000000 </v>
   <v>       0.00000000       0.25000000       0.12500000 </v>
   <v>       0.12500000       0.00000000       0.25000000 </v>
   <v>       0.37500000       0.12500000       0.00000000 </v>
   <v>       0.00000000       0.37500000       0.12500000 </v>
   <v>       0.12500000       0.00000000       0.37500000 </v>
   <v>       0.50000000       0.12500000       0.00000000 </v>
   <v>       0.00000000       0.50000000       0.12500000 </v>
   <v>       0.12500000       0.00000000       0.50000000 </v>
   <v>       0.25000000       0.25000000       0.00000000 </v>
   <v>       0.00000000       0.25000000       0.25000000 </v>
   <v>       0.37500000       0.25000000       0.00000000 </v>
   <v>       0.00000000       0.37500000       0.25000000 </v>
   <v>       0.25000000       0.00000000       0.37500000 </v>
   <v>       0.50000000       0.25000000       0.00000000 </v>
   <v>       0.00000000       0.50000000       0.25000000 </v>
   <v>       0.25000000       0.00000000       0.50000000 </v>
   <v>       0.37500000       0.37500000       0.00000000 </v>
   <v>       0.00000000       0.37500000       0.37500000 </v>
   <v>       0.50000000       0.37500000       0.00000000 </v>
   <v>       0.00000000       0.50000000       0.37500000 </v>
   <v>       0.37500000       0.00000000       0.50000000 </v>
   <v>       0.50000000       0.50000000       0.00000000 </v>
   <v>       0.00000000       0.50000000       0.50000000 </v>
   <v>       0.12500000       0.12500000       0.12500000 </v>
   <v>       0.25000000       0.12500000       0.12500000 </v>
   <v>       0.12500000       0.25000000       0.12500000 </v>
   <v>       0.37500000       0.12500000       0.12500000 </v>
   <v>       0.12500000       0.37500000       0.12500000 </v>
   <v>       0.50000000       0.12500000       0.12500000 </v>
   <v>       0.12500000       0.50000000       0.12500000 </v>
   <v>       0.25000000       0.25000000       0.12500000 </v>
   <v>       0.12500000       0.25000000       0.25000000 </v>
   <v>       0.37500000       0.25000000       0.12500000 </v>
   <v>       0.12500000       0.37500000       0.25000000 </v>
   <v>       0.25000000       0.12500000       0.37500000 </v>
   <v>       0.50000000       0.25000000       0.12500000 </v>
   <v>       0.12500000       0.50000000       0.25000000 </v>
   <v>       0.25000000       0.12500000       0.50000000 </v>
   <v>       0.37500000       0.37500000       0.12500000 </v>
   <v>       0.12500000       0.37500000       0.37500000 </v>
   <v>       0.50000000       0.37500000       0.12500000 </v>
   <v>       0.12500000       0.50000000       0.37500000 </v>
   <v>       0.37500000       0.12500000       0.50000000 </v>
   <v>       0.50000000       0.50000000       0.12500000 </v>
   <v>       0.12500000       0.50000000       0.50000000 </v>
   <v>       0.25000000       0.25000000       0.25000000 </v>
   <v>       0.37500000       0.25000000       0.25000000 </v>
   <v>       0.25000000       0.37500000       0.25000000 </v>
   <v>       0.50000000       0.25000000       0.25000000 </v>
   <v>       0.25000000       0.50000000       0.25000000 </v>
   <v>       0.37500000       0.37500000       0.25000000 </v>
   <v>       0.25000000       0.37500000       0.37500000 </v>
   <v>       0.50000000       0.37500000       0.25000000 </v>
   <v>       0.25000000       0.50000000       0.37500000 </v>
   <v>       0.37500000       0.25000000       0.50000000 </v>
   <v>       0.50000000       0.50000000       0.25000000 </v>
   <v>       0.25000000       0.50000000       0.50000000 </v>
   <v>       0.37500000       0.37500000       0.37500000 </v>
   <v>       0.50000000       0.37500000       0.37500000 </v>
   <v>       0.37500000       0.50000000       0.37500000 </v>
   <v>       0.50000000       0.50000000       0.37500000 </v>
   <v>       0.37500000       0.50000000       0.50000000 </v>
   <v>       0.50000000       0.50000000       0.50000000 </v>
  </varray>
  <varray name="weights" >
   <v>       0.00195312 </v>
   <v>       0.00390625 </v>
   <v>       0.00781250 </v>
   <v>       0.00390625 </v>
   <v>       0.00781250 </v>
   <v>       0.00390625 </v>
   <v>       0.00781250 </v>
   <v>       0.00195312 </v>
   <v>       0.00390625 </v>
   <v>       0.01562500 </v>
   <v>       0.00781250 </v>
   <v>       0.01562500 </v>
   <v>       0.01562500 </v>
   <v>       0.01562500 </v>
   <v>       0.01562500 </v>
   <v>       0.01562500 </v>
   <v>       0.01562500 </v>
   <v>       0.00781250 </v>
   <v>       0.00781250 </v>
   <v>       0.00781250 </v>
   <v>       0.01562500 </v>
   <v>       0.00781250 </v>
   <v>       0.01562500 </v>
   <v>       0.01562500 </v>
   <v>       0.01562500 </v>
   <v>       0.00781250 </v>
   <v>       0.00781250 </v>
   <v>       0.00781250 </v>
   <v>       0.01562500 </v>
   <v>       0.00781250 </v>
   <v>       0.00781250 </v>
   <v>       0.00781250 </v>
   <v>       0.00781250 </v>
   <v>       0.00390625 </v>
   <v>       0.00195312 </v>
   <v>       0.01562500 </v>
   <v>       0.01562500 </v>
   <v>       0.03125000 </v>
   <v>       0.01562500 </v>
   <v>       0.03125000 </v>
   <v>       0.00781250 </v>
   <v>       0.01562500 </v>
   <v>       0.03125000 </v>
   <v>       0.01562500 </v>
   <v>       0.03125000 </v>
   <v>       0.03125000 </v>
   <v>       0.03125000 </v>
   <v>       0.01562500 </v>
   <v>       0.01562500 </v>
   <v>       0.01562500 </v>
   <v>       0.03125000 </v>
   <v>       0.01562500 </v>
   <v>       0.01562500 </v>
   <v>       0.01562500 </v>
   <v>       0.01562500 </v>
   <v>       0.00781250 </v>
   <v>       0.00390625 </v>
   <v>       0.01562500 </v>
   <v>       0.01562500 </v>
   <v>       0.03125000 </v>
   <v>       0.00781250 </v>
   <v>       0.01562500 </v>
   <v>       0.03125000 </v>
   <v>       0.01562500 </v>
   <v>       0.01562500 </v>
   <v>       0.01562500 </v>
   <v>       0.01562500 </v>
   <v>       0.00781250 </v>
   <v>       0.00390625 </v>
   <v>       0.01562500 </v>
   <v>       0.00781250 </v>
   <v>       0.01562500 </v>
   <v>       0.00781250 </v>
   <v>       0.00390625 </v>
   <v>       0.00195312 </v>
  </varray>
 </kpoints>
 <parameters>
  <separator name="general" >
   <i type="string" name="SYSTEM">unknown system</i>
   <i type="logical" name="LCOMPAT"> F  </i>
  </separator>
  <separator name="electronic" >
   <i type="string" name="PREC">normal</i>
   <i name="ENMAX">    400.00000000</i>
   <i name="ENAUG">    291.05200000</i>
   <i name="EDIFF">      0.00010000</i>
   <i type="int" name="IALGO">    38</i>
   <i type="int" name="IWAVPR">    10</i>
   <i type="int" name="NBANDS">    72</i>
   <i type="int" name="NBANDSLOW">    -1</i>
   <i type="int" name="NBANDSHIGH">    -1</i>
   <i name="NELECT">     96.00000000</i>
   <i type="int" name="TURBO">     0</i>
   <i type="int" name="IRESTART">     0</i>
   <i type="int" name="NREBOOT">     0</i>
   <i type="int" name="NMIN">     0</i>
   <i name="EREF">      0.00000000</i>
   <separator name="electronic smearing" >
    <i type="int" name="ISMEAR">     0</i>
    <i name="SIGMA">      0.05000000</i>
    <i name="KSPACING">      0.50000000</i>
    <i type="logical" name="KGAMMA"> T  </i>
    <i type="logical" name="KBLOWUP"> T  </i>
   </separator>
   <separator name="electronic projectors" >
    <i type="logical" name="LREAL"> F  </i>
    <v name="ROPT">      0.00000000</v>
    <i type="int" name="LMAXPAW">  -100</i>
    <i type="int" name="LMAXMIX">     2</i>
    <i type="logical" name="NLSPLINE"> F  </i>
   </separator>
   <separator name="electronic startup" >
    <i type="int" name="ISTART">     0</i>
    <i type="int" name="ICHARG">     2</i>
    <i type="int" name="INIWAV">     1</i>
   </separator>
   <separator name="electronic spin" >
    <i type="int" name="ISPIN">     1</i>
    <i type="logical" name="LNONCOLLINEAR"> F  </i>
    <v name="MAGMOM">      1.00000000      1.00000000      1.00000000      1.00000000      1.00000000      1.00000000      1.00000000      1.00000000      1.00000000      1.00000000      1.00000000      1.00000000      1.00000000      1.00000000      1.00000000      1.00000000      1.00000000      1.00000000      1.00000000      1.00000000
      1.00000000      1.00000000      1.00000000      1.00000000      1.00000000      1.00000000      1.00000000      1.00000000      1.00000000      1.00000000      1.00000000      1.00000000</v>
    <i name="NUPDOWN">     -1.00000000</i>
    <i type="logical" name="LSORBIT"> F  </i>
    <v name="SAXIS">      0.00000000      0.00000000      1.00000000</v>
    <i type="logical" name="LSPIRAL"> F  </i>
    <v name="QSPIRAL">      0.00000000      0.00000000      0.00000000</v>
    <i type="logical" name="LZEROZ"> F  </i>
   </separator>
   <separator name="electronic exchange-correlation" >
    <i type="logical" name="LASPH"> F  </i>
    <i type="logical" name="LMETAGGA"> F  </i>
   </separator>
   <separator name="electronic convergence" >
    <i type="int" name="NELM">    60</i>
    <i type="int" name="NELMDL">    -5</i>
    <i type="int" name="NELMIN">     2</i>
    <i name="ENINI">    400.00000000</i>
    <separator name="electronic convergence detail" >
     <i type="logical" name="LDIAG"> T  </i>
     <i type="logical" name="LSUBROT"> F  </i>
     <i name="WEIMIN">      0.00000000</i>
     <i name="EBREAK">      0.00000035</i>
     <i name="DEPER">      0.30000000</i>
     <i type="int" name="NRMM">     4</i>
     <i name="TIME">      0.40000000</i>
    </separator>
   </separator>
   <separator name="electronic mixer" >
    <i name="AMIX">      0.40000000</i>
    <i name="BMIX">      1.00000000</i>
    <i name="AMIN">      0.10000000</i>
    <i name="AMIX_MAG">      1.60000000</i>
    <i name="BMIX_MAG">      1.00000000</i>
    <separator name="electronic mixer details" >
     <i type="int" name="IMIX">     4</i>
     <i type="logical" name="MIXFIRST"> F  </i>
     <i type="int" name="MAXMIX">   -45</i>
     <i name="WC">    100.00000000</i>
     <i type="int" name="INIMIX">     1</i>
     <i type="int" name="MIXPRE">     1</i>
     <i type="int" name="MREMOVE">     5</i>
    </separator>
   </separator>
   <separator name="electronic dipolcorrection" >
    <i type="logical" name="LDIPOL"> F  </i>
    <i type="logical" name="LMONO"> F  </i>
    <i type="int" name="IDIPOL">     0</i>
    <i name="EPSILON">      1.00000000</i>
    <v name="DIPOL">   -100.00000000   -100.00000000   -100.00000000</v>
    <i name="EFIELD">      0.00000000</i>
   </separator>
  </separator>
  <separator name="grids" >
   <i type="int" name="NGX">    40</i>
   <i type="int" name="NGY">    40</i>
   <i type="int" name="NGZ">    40</i>
   <i type="int" name="NGXF">    80</i>
   <i type="int" name="NGYF">    80</i>
   <i type="int" name="NGZF">    80</i>
   <i type="logical" name="ADDGRID"> F  </i>
  </separator>
  <separator name="ionic" >
   <i type="int" name="NSW">     0</i>
   <i type="int" name="IBRION">    -1</i>
   <i type="int" name="MDALGO">     0</i>
   <i type="int" name="ISIF">     2</i>
   <i name="PSTRESS">      0.00000000</i>
   <i name="EDIFFG">      0.00100000</i>
   <i type="int" name="NFREE">     0</i>
   <i name="POTIM">      0.50000000</i>
   <i name="SMASS">     -3.00000000</i>
   <i name="SCALEE">      1.00000000</i>
  </separator>
  <separator name="ionic md" >
   <i name="TEBEG">      0.00010000</i>
   <i name="TEEND">      0.00010000</i>
   <i type="int" name="NBLOCK">     1</i>
   <i type="int" name="KBLOCK">     1</i>
   <i type="int" name="NPACO">   256</i>
   <i name="APACO">     10.00000000</i>
  </separator>
  <separator name="symmetry" >
   <i type="int" name="ISYM">     2</i>
   <i name="SYMPREC">      0.00001000</i>
  </separator>
  <separator name="dos" >
   <i type="int" name="LORBIT">     0</i>
   <v name="RWIGS">     -1.00000000</v>
   <i type="int" name="NEDOS">   301</i>
   <i name="EMIN">     10.00000000</i>
   <i name="EMAX">    -10.00000000</i>
   <i name="EFERMI">      0.00000000</i>
  </separator>
  <separator name="writing" >
   <i type="int" name="NWRITE">     2</i>
   <i type="logical" name="LWAVE"> T  </i>
   <i type="logical" name="LDOWNSAMPLE"> F  </i>
   <i type="logical" name="LCHARG"> T  </i>
   <i type="logical" name="LPARD"> F  </i>
   <i type="logical" name="LVTOT"> F  </i>
   <i type="logical" name="LVHAR"> F  </i>
   <i type="logical" name="LELF"> F  </i>
   <i type="logical" name="LOPTICS"> F  </i>
   <v name="STM">      0.00000000      0.00000000      0.00000000      0.00000000      0.00000000      0.00000000      0.00000000</v>
  </separator>
  <separator name="performance" >
   <i type="int" name="NPAR">    24</i>
   <i type="int" name="NSIM">     4</i>
   <i type="int" name="NBLK">    -1</i>
   <i type="logical" name="LPLANE"> T  </i>
   <i type="logical" name="LSCALAPACK"> T  </i>
   <i type="logical" name="LSCAAWARE"> F  </i>
   <i type="logical" name="LSCALU"> F  </i>
   <i type="logical" name="LASYNC"> F  </i>
   <i type="logical" name="LORBITALREAL"> F  </i>
  </separator>
  <separator name="miscellaneous" >
   <i type="int" name="IDIOT">     3</i>
   <i type="int" name="PHON_NSTRUCT">    -1</i>
   <i type="logical" name="LMUSIC"> F  </i>
   <v name="POMASS">     26.98100000</v>
   <v name="DARWINR">      0.00000000</v>
   <v name="DARWINV">      1.00000000</v>
   <i type="logical" name="LCORR"> T  </i>
  </separator>
  <i type="logical" name="GGA_COMPAT"> T  </i>
  <i type="logical" name="LBERRY"> F  </i>
  <i type="int" name="ICORELEVEL">     0</i>
  <i type="logical" name="LDAU"> F  </i>
  <i type="int" name="I_CONSTRAINED_M">     0</i>
  <separator name="electronic exchange-correlation" >
   <i type="string" name="GGA">--</i>
   <i type="int" name="VOSKOWN">     0</i>
   <i type="logical" name="LHFCALC"> F  </i>
   <i type="string" name="PRECFOCK"></i>
   <i type="logical" name="LSYMGRAD"> F  </i>
   <i type="logical" name="LHFONE"> F  </i>
   <i type="logical" name="LRHFCALC"> F  </i>
   <i type="logical" name="LTHOMAS"> F  </i>
   <i type="logical" name="LMODELHF"> F  </i>
   <i type="logical" name="LFOCKACE"> F  </i>
   <i name="ENCUT4O">     -1.00000000</i>
   <i type="int" name="EXXOEP">     0</i>
   <i type="int" name="FOURORBIT">     0</i>
   <i name="AEXX">      0.00000000</i>
   <i name="HFALPHA">      0.00000000</i>
   <i name="MCALPHA">      0.00000000</i>
   <i name="ALDAX">      1.00000000</i>
   <i name="AGGAX">      1.00000000</i>
   <i name="ALDAC">      1.00000000</i>
   <i name="AGGAC">      1.00000000</i>
   <i type="int" name="NKREDX">     1</i>
   <i type="int" name="NKREDY">     1</i>
   <i type="int" name="NKREDZ">     1</i>
   <i type="logical" name="SHIFTRED"> F  </i>
   <i type="logical" name="ODDONLY"> F  </i>
   <i type="logical" name="EVENONLY"> F  </i>
   <i type="int" name="LMAXFOCK">     0</i>
   <i type="int" name="NMAXFOCKAE">     0</i>
   <i type="logical" name="LFOCKAEDFT"> F  </i>
   <i name="HFSCREEN">      0.00000000</i>
   <i name="HFSCREENC">      0.00000000</i>
   <i type="int" name="NBANDSGWLOW">     0</i>
  </separator>
  <separator name="vdW DFT" >
   <i type="logical" name="LUSE_VDW"> F  </i>
   <i name="Zab_VDW">     -0.84910000</i>
   <i name="PARAM1">      0.12340000</i>
   <i name="PARAM2">      1.00000000</i>
   <i name="PARAM3">      0.00000000</i>
  </separator>
  <separator name="model GW" >
   <i type="int" name="MODEL_GW">     0</i>
   <i name="MODEL_EPS0">     10.17859018</i>
   <i name="MODEL_ALPHA">      1.00000000</i>
  </separator>
  <separator name="linear response parameters" >
   <i type="logical" name="LEPSILON"> F  </i>
   <i type="logical" name="LRPA"> F  </i>
   <i type="logical" name="LNABLA"> F  </i>
   <i type="logical" name="LVEL"> F  </i>
   <i name="CSHIFT">      0.10000000</i>
   <i name="OMEGAMAX">     -1.00000000</i>
   <i name="DEG_THRESHOLD">      0.00200000</i>
   <i name="RTIME">     -0.10000000</i>
   <i name="WPLASMAI">      0.00000000</i>
   <v name="DFIELD">      0.00000000      0.00000000      0.00000000</v>
   <v name="WPLASMA">      0.00000000      0.00000000      0.00000000      0.00000000      0.00000000      0.00000000      0.00000000      0.00000000      0.00000000</v>
  </separator>
  <separator name="orbital magnetization" >
   <i type="logical" name="NUCIND"> F  </i>
   <v name="MAGPOS">      0.00000000      0.00000000      0.00000000</v>
   <i type="logical" name="LNICSALL"> T  </i>
   <i type="logical" name="ORBITALMAG"> F  </i>
   <i type="logical" name="LMAGBLOCH"> F  </i>
   <i type="logical" name="LCHIMAG"> F  </i>
   <i type="logical" name="LGAUGE"> T  </i>
   <i type="int" name="MAGATOM">     0</i>
   <v name="MAGDIPOL">      0.00000000      0.00000000      0.00000000</v>
   <v name="AVECCONST">      0.00000000      0.00000000      0.00000000</v>
  </separator>
  <separator name="response functions" >
   <i type="logical" name="LFINITE_TEMPERATURE"> F  </i>
   <i type="logical" name="LADDER"> F  </i>
   <i type="logical" name="LRPAFORCE"> F  </i>
   <i type="logical" name="LFXC"> F  </i>
   <i type="logical" name="LHARTREE"> T  </i>
   <i type="int" name="IBSE">     0</i>
   <v type="int" name="KPOINT">    -1     0     0     0</v>
   <i type="logical" name="LTCTC"> F  </i>
   <i type="logical" name="LTCTE"> F  </i>
   <i type="logical" name="LTETE"> F  </i>
   <i type="logical" name="LTRIPLET"> F  </i>
   <i type="logical" name="LFXCEPS"> F  </i>
   <i type="logical" name="LFXHEG"> F  </i>
   <i type="int" name="NATURALO">     2</i>
   <i type="logical" name="LHOLEGF"> F  </i>
   <i type="logical" name="L2ORDER"> F  </i>
   <i type="logical" name="LDMP1"> F  </i>
   <i type="logical" name="LMP2LT"> F  </i>
   <i type="logical" name="LSMP2LT"> F  </i>
   <i type="logical" name="LGWLF"> F  </i>
   <i name="ENCUTGW">     -2.00000000</i>
   <i name="ENCUTGWSOFT">     -2.00000000</i>
   <i name="ENCUTLF">     -1.00000000</i>
   <i type="logical" name="LESF_SPLINES"> F  </i>
   <i type="int" name="LMAXMP2">    -1</i>
   <i name="SCISSOR">      0.00000000</i>
   <i type="int" name="NOMEGA">     0</i>
   <i type="int" name="NOMEGAR">     0</i>
   <i type="int" name="NBANDSGW">    -1</i>
   <i type="int" name="NBANDSO">    -1</i>
   <i type="int" name="NBANDSV">    -1</i>
   <i type="int" name="NELMGW">     1</i>
   <i type="int" name="NELMHF">     1</i>
   <i type="int" name="DIM">     3</i>
   <i type="int" name="IESPILON">     4</i>
   <i type="int" name="ANTIRES">     0</i>
   <i name="OMEGAMAX">    -30.00000000</i>
   <i name="OMEGAMIN">    -30.00000000</i>
   <i name="OMEGATL">   -200.00000000</i>
   <i type="int" name="OMEGAGRID">     0</i>
   <i name="CSHIFT">     -0.10000000</i>
   <i type="logical" name="LSELFENERGY"> F  </i>
   <i type="logical" name="LSPECTRAL"> F  </i>
   <i type="logical" name="LSPECTRALGW"> F  </i>
   <i type="logical" name="LSINGLES"> F  </i>
   <i type="logical" name="LFERMIGW"> F  </i>
   <i type="logical" name="ODDONLYGW"> F  </i>
   <i type="logical" name="EVENONLYGW"> F  </i>
   <i type="int" name="NKREDLFX">     1</i>
   <i type="int" name="NKREDLFY">     1</i>
   <i type="int" name="NKREDLFZ">     1</i>
   <i type="int" name="MAXMEM">  2800</i>
   <i type="int" name="TELESCOPE">     0</i>
   <i type="int" name="NTAUPAR">    -1</i>
   <i type="int" name="NOMEGAPAR">    -1</i>
   <i name="DAMP_NEWTON">      0.80000001</i>
   <i name="LAMBDA">      1.00000000</i>
  </separator>
  <separator name="External order field" >
   <i name="OFIELD_KAPPA">      0.00000000</i>
   <v name="OFIELD_K">      0.00000000      0.00000000      0.00000000</v>
   <i name="OFIELD_Q6_NEAR">      0.00000000</i>
   <i name="OFIELD_Q6_FAR">      0.00000000</i>
   <i name="OFIELD_A">      0.00000000</i>
  </separator>
  <separator name="optional k-points parameters" >
   <i type="int" name="KPOINTS_OPT_MODE">     1</i>
   <i type="logical" name="LKPOINTS_OPT"> F  </i>
  </separator>
 </parameters>
 <atominfo>
  <atoms>      32 </atoms>
  <types>       1 </types>
  <array name="atoms" >
   <dimension dim="1">ion</dimension>
   <field type="string">element</field>
   <field type="int">atomtype</field>
   <set>
    <rc><c>Al</c><c>   1</c></rc>
    <rc><c>Al</c><c>   1</c></rc>
    <rc><c>Al</c><c>   1</c></rc>
    <rc><c>Al</c><c>   1</c></rc>
    <rc><c>Al</c><c>   1</c></rc>
    <rc><c>Al</c><c>   1</c></rc>
    <rc><c>Al</c><c>   1</c></rc>
    <rc><c>Al</c><c>   1</c></rc>
    <rc><c>Al</c><c>   1</c></rc>
    <rc><c>Al</c><c>   1</c></rc>
    <rc><c>Al</c><c>   1</c></rc>
    <rc><c>Al</c><c>   1</c></rc>
    <rc><c>Al</c><c>   1</c></rc>
    <rc><c>Al</c><c>   1</c></rc>
    <rc><c>Al</c><c>   1</c></rc>
    <rc><c>Al</c><c>   1</c></rc>
    <rc><c>Al</c><c>   1</c></rc>
    <rc><c>Al</c><c>   1</c></rc>
    <rc><c>Al</c><c>   1</c></rc>
    <rc><c>Al</c><c>   1</c></rc>
    <rc><c>Al</c><c>   1</c></rc>
    <rc><c>Al</c><c>   1</c></rc>
    <rc><c>Al</c><c>   1</c></rc>
    <rc><c>Al</c><c>   1</c></rc>
    <rc><c>Al</c><c>   1</c></rc>
    <rc><c>Al</c><c>   1</c></rc>
    <rc><c>Al</c><c>   1</c></rc>
    <rc><c>Al</c><c>   1</c></rc>
    <rc><c>Al</c><c>   1</c></rc>
    <rc><c>Al</c><c>   1</c></rc>
    <rc><c>Al</c><c>   1</c></rc>
    <rc><c>Al</c><c>   1</c></rc>
   </set>
  </array>
  <array name="atomtypes" >
   <dimension dim="1">type</dimension>
   <field type="int">atomspertype</field>
   <field type="string">element</field>
   <field>mass</field>
   <field>valence</field>
   <field type="string">pseudopotential</field>
   <set>
    <rc><c>  32</c><c>Al</c><c>     26.98100000</c><c>      3.00000000</c><c>  PAW_PBE Al 04Jan2001                  </c></rc>
   </set>
  </array>
 </atominfo>
 <structure name="initialpos" >
  <crystal>
   <varray name="basis" >
    <v>       8.15759460       0.00000000       0.00000000 </v>
    <v>       0.00000000       8.15759460       0.00000000 </v>
    <v>       0.00000000       0.00000000       8.15759460 </v>
   </varray>
   <i name="volume">    542.85814291 </i>
   <varray name="rec_basis" >
    <v>       0.12258516       0.00000000       0.00000000 </v>
    <v>       0.00000000       0.12258516       0.00000000 </v>
    <v>       0.00000000       0.00000000       0.12258516 </v>
   </varray>
  </crystal>
  <varray name="positions" >
   <v>       0.00122585       0.00000000       0.00000000 </v>
   <v>       0.50000000       0.00000000       0.00000000 </v>
   <v>       0.00000000       0.50000000       0.00000000 </v>
   <v>       0.50000000       0.50000000       0.00000000 </v>
   <v>       0.00000000       0.00000000       0.50000000 </v>
   <v>       0.50000000       0.00000000       0.50000000 </v>
   <v>       0.00000000       0.50000000       0.50000000 </v>
   <v>       0.50000000       0.50000000       0.50000000 </v>
   <v>       0.00000000       0.25000000       0.25000000 </v>
   <v>       0.50000000       0.25000000       0.25000000 </v>
   <v>       0.00000000       0.75000000       0.25000000 </v>
   <v>       0.50000000       0.75000000       0.25000000 </v>
   <v>       0.00000000       0.25000000       0.75000000 </v>
   <v>       0.50000000       0.25000000       0.75000000 </v>
   <v>       0.00000000       0.75000000       0.75000000 </v>
   <v>       0.50000000       0.75000000       0.75000000 </v>
   <v>       0.25000000       0.00000000       0.25000000 </v>
   <v>       0.75000000       0.00000000       0.25000000 </v>
   <v>       0.25000000       0.50000000       0.25000000 </v>
   <v>       0.75000000       0.50000000       0.25000000 </v>
   <v>       0.25000000       0.00000000       0.75000000 </v>
   <v>       0.75000000       0.00000000       0.75000000 </v>
   <v>       0.25000000       0.50000000       0.75000000 </v>
   <v>       0.75000000       0.50000000       0.75000000 </v>
   <v>       0.25000000       0.25000000       0.00000000 </v>
   <v>       0.75000000       0.25000000       0.00000000 </v>
   <v>       0.25000000       0.75000000       0.00000000 </v>
   <v>       0.75000000       0.75000000       0.00000000 </v>
   <v>       0.25000000       0.25000000       0.50000000 </v>
   <v>       0.75000000       0.25000000       0.50000000 </v>
   <v>       0.25000000       0.75000000       0.50000000 </v>
   <v>       0.75000000       0.75000000       0.50000000 </v>
  </varray>
 </structure>
 <calculation>
  <scstep>
   <time name="dav">    4.17    4.19</time>
   <time name="total">    4.18    4.20</time>
   <energy>
    <i name="alphaZ">     -6.33576448 </i>
    <i name="ewald">  -2330.84009311 </i>
    <i name="hartreedc">     -3.60304331 </i>
    <i name="XCdc">   -841.26408360 </i>
    <i name="pawpsdc">   2118.40502803 </i>
    <i name="pawaedc">  -1095.85986421 </i>
    <i name="eentropy">     -0.01008538 </i>
    <i name="bandstr">    525.68010391 </i>
    <i name="atom">   1713.22093829 </i>
    <i name="e_fr_energy">     79.39313614 </i>
    <i name="e_wo_entrp">     79.40322152 </i>
    <i name="e_0_energy">     79.39817883 </i>
   </energy>
  </scstep>
  <scstep>
   <time name="dav">    4.84    4.86</time>
   <time name="total">    4.85    4.86</time>
   <energy>
    <i name="e_fr_energy">   -112.60177623 </i>
    <i name="e_wo_entrp">   -112.58873217 </i>
    <i name="e_0_energy">   -112.59525420 </i>
   </energy>
  </scstep>
  <scstep>
   <time name="dav">    5.24    5.26</time>
   <time name="total">    5.24    5.26</time>
   <energy>
    <i name="e_fr_energy">   -120.39844093 </i>
    <i name="e_wo_entrp">   -120.38289781 </i>
    <i name="e_0_energy">   -120.39066937 </i>
   </energy>
  </scstep>
  <scstep>
   <time name="dav">    4.48    4.49</time>
   <time name="total">    4.48    4.50</time>
   <energy>
    <i name="e_fr_energy">   -120.49693641 </i>
    <i name="e_wo_entrp">   -120.48180187 </i>
    <i name="e_0_energy">   -120.48936914 </i>
   </energy>
  </scstep>
  <scstep>
   <time name="dav">    5.20    5.22</time>
   <time name="total">    5.27    5.29</time>
   <energy>
    <i name="e_fr_energy">   -120.49808886 </i>
    <i name="e_wo_entrp">   -120.48296131 </i>
    <i name="e_0_energy">   -120.49052509 </i>
   </energy>
  </scstep>
  <scstep>
   <time name="dav">    4.63    4.64</time>
   <time name="total">    4.71    4.72</time>
   <energy>
    <i name="e_fr_energy">   -120.08952429 </i>
    <i name="e_wo_entrp">   -120.07434646 </i>
    <i name="e_0_energy">   -120.08193537 </i>
   </energy>
  </scstep>
  <scstep>
   <time name="dav">    4.80    4.82</time>
   <time name="total">    4.88    4.92</time>
   <energy>
    <i name="e_fr_energy">   -119.79324804 </i>
    <i name="e_wo_entrp">   -119.77824536 </i>
    <i name="e_0_energy">   -119.78574670 </i>
   </energy>
  </scstep>
  <scstep>
   <time name="dav">    5.03    5.04</time>
   <time name="total">    5.10    5.12</time>
   <energy>
    <i name="e_fr_energy">   -119.79057604 </i>
    <i name="e_wo_entrp">   -119.77561253 </i>
    <i name="e_0_energy">   -119.78309428 </i>
   </energy>
  </scstep>
  <scstep>
   <time name="dav">    3.95    3.96</time>
   <time name="total">    3.96    3.99</time>
   <energy>
    <i name="alphaZ">     -6.33576448 </i>
    <i name="ewald">  -2330.84009311 </i>
    <i name="hartreedc">     -3.25814484 </i>
    <i name="XCdc">   -837.96189962 </i>
    <i name="pawpsdc">   4309.33882948 </i>
    <i name="pawaedc">  -3287.06262706 </i>
    <i name="eentropy">     -0.01495702 </i>
    <i name="bandstr">    323.12321211 </i>
    <i name="atom">   1713.22093829 </i>
    <i name="e_fr_energy">   -119.79050624 </i>
    <i name="e_wo_entrp">   -119.77554923 </i>
    <i name="e_0_energy">   -119.78302774 </i>
   </energy>
  </scstep>
  <structure>
   <crystal>
    <varray name="basis" >
     <v>       8.15759460       0.00000000       0.00000000 </v>
     <v>       0.00000000       8.15759460       0.00000000 </v>
     <v>       0.00000000       0.00000000       8.15759460 </v>
    </varray>
    <i name="volume">    542.85814291 </i>
    <varray name="rec_basis" >
     <v>       0.12258516       0.00000000       0.00000000 </v>
     <v>       0.00000000       0.12258516       0.00000000 </v>
     <v>       0.00000000       0.00000000       0.12258516 </v>
    </varray>
   </crystal>
   <varray name="positions" >
    <v>       0.00122585       0.00000000       0.00000000 </v>
    <v>       0.50000000       0.00000000       0.00000000 </v>
    <v>       0.00000000       0.50000000       0.00000000 </v>
    <v>       0.50000000       0.50000000       0.00000000 </v>
    <v>       0.00000000       0.00000000       0.50000000 </v>
    <v>       0.50000000       0.00000000       0.50000000 </v>
    <v>       0.00000000       0.50000000       0.50000000 </v>
    <v>       0.50000000       0.50000000       0.50000000 </v>
    <v>       0.00000000       0.25000000       0.25000000 </v>
    <v>       0.50000000       0.25000000       0.25000000 </v>
    <v>       0.00000000       0.75000000       0.25000000 </v>
    <v>       0.50000000       0.75000000       0.25000000 </v>
    <v>       0.00000000       0.25000000       0.75000000 </v>
    <v>       0.50000000       0.25000000       0.75000000 </v>
    <v>       0.00000000       0.75000000       0.75000000 </v>
    <v>       0.50000000       0.75000000       0.75000000 </v>
    <v>       0.25000000       0.00000000       0.25000000 </v>
    <v>       0.75000000       0.00000000       0.25000000 </v>
    <v>       0.25000000       0.50000000       0.25000000 </v>
    <v>       0.75000000       0.50000000       0.25000000 </v>
    <v>       0.25000000       0.00000000       0.75000000 </v>
    <v>       0.75000000       0.00000000       0.75000000 </v>
    <v>       0.25000000       0.50000000       0.75000000 </v>
    <v>       0.75000000       0.50000000       0.75000000 </v>
    <v>       0.25000000       0.25000000       0.00000000 </v>
    <v>       0.75000000       0.25000000       0.00000000 </v>
    <v>       0.25000000       0.75000000       0.00000000 </v>
    <v>       0.75000000       0.75000000       0.00000000 </v>
    <v>       0.25000000       0.25000000       0.50000000 </v>
    <v>       0.75000000       0.25000000       0.50000000 </v>
    <v>       0.25000000       0.75000000       0.50000000 </v>
    <v>       0.75000000       0.75000000       0.50000000 </v>
   </varray>
  </structure>
  <varray name="forces" >
   <v>      -0.04072539       0.00000000       0.00000000 </v>
   <v>       0.00241074       0.00000000       0.00000000 </v>
   <v>      -0.00038288       0.00000000       0.00000000 </v>
   <v>       0.00074823      -0.00000000       0.00000000 </v>
   <v>      -0.00038288       0.00000000       0.00000000 </v>
   <v>       0.00074823      -0.00000000       0.00000000 </v>
   <v>      -0.00010977       0.00000000       0.00000000 </v>
   <v>      -0.00100822       0.00000000       0.00000000 </v>
   <v>      -0.00138600      -0.00000738      -0.00000738 </v>
   <v>      -0.00021624       0.00000551       0.00000551 </v>
   <v>      -0.00138600       0.00000738      -0.00000738 </v>
   <v>      -0.00021624      -0.00000551       0.00000551 </v>
   <v>      -0.00138600      -0.00000738       0.00000738 </v>
   <v>      -0.00021624       0.00000551      -0.00000551 </v>
   <v>      -0.00138600       0.00000738       0.00000738 </v>
   <v>      -0.00021624      -0.00000551      -0.00000551 </v>
   <v>       0.00553831      -0.00000000       0.00587248 </v>
   <v>       0.00539908      -0.00000000      -0.00563363 </v>
   <v>       0.00017211       0.00000000      -0.00005910 </v>
   <v>       0.00016822       0.00000000       0.00006098 </v>
   <v>       0.00553831       0.00000000      -0.00587248 </v>
   <v>       0.00539908       0.00000000       0.00563363 </v>
   <v>       0.00017211       0.00000000       0.00005910 </v>
   <v>       0.00016822      -0.00000000      -0.00006098 </v>
   <v>       0.00553831       0.00587248       0.00000000 </v>
   <v>       0.00539908      -0.00563363       0.00000000 </v>
   <v>       0.00553831      -0.00587248       0.00000000 </v>
   <v>       0.00539908       0.00563363       0.00000000 </v>
   <v>       0.00017211      -0.00005910       0.00000000 </v>
   <v>       0.00016822       0.00006098       0.00000000 </v>
   <v>       0.00017211       0.00005910       0.00000000 </v>
   <v>       0.00016822      -0.00006098       0.00000000 </v>
  </varray>
  <varray name="stress" >
   <v>     -21.75320635      -0.00000000       0.00000000 </v>
   <v>       0.00000000     -21.75395185       0.00000000 </v>
   <v>       0.00000000       0.00000000     -21.75395185 </v>
  </varray>
  <energy>
   <i name="e_fr_energy">   -119.79050624 </i>
   <i name="e_wo_entrp">   -119.77554923 </i>
   <i name="e_0_energy">   -119.78302774 </i>
  </energy>
  <time name="totalsc">   50.87   51.53</time>
  <eigenvalues>
   <array>
    <dimension dim="1">band</dimension>
    <dimension dim="2">kpoint</dimension>
    <dimension dim="3">spin</dimension>
    <field>eigene</field>
    <field>occ</field>
    <set>
     <set comment="spin 1">
      <set comment="kpoint 1">
       <r>   -3.2300    1.0000 </r>
       <r>   -1.0257    1.0000 </r>
       <r>   -1.0220    1.0000 </r>
       <r>   -1.0220    1.0000 </r>
       <r>   -1.0220    1.0000 </r>
       <r>   -1.0220    1.0000 </r>
       <r>   -1.0183    1.0000 </r>
       <r>    1.1469    1.0000 </r>
       <r>    1.1514    1.0000 </r>
       <r>    1.1514    1.0000 </r>
       <r>    1.1531    1.0000 </r>
       <r>    1.1532    1.0000 </r>
       <r>    1.1532    1.0000 </r>
       <r>    1.1532    1.0000 </r>
       <r>    1.1532    1.0000 </r>
       <r>    1.1534    1.0000 </r>
       <r>    1.1551    1.0000 </r>
       <r>    1.1551    1.0000 </r>
       <r>    1.1595    1.0000 </r>
       <r>    3.2313    1.0000 </r>
       <r>    3.2313    1.0000 </r>
       <r>    3.2313    1.0000 </r>
       <r>    3.2313    1.0000 </r>
       <r>    3.3714    1.0000 </r>
       <r>    3.3714    1.0000 </r>
       <r>    3.3714    1.0000 </r>
       <r>    3.3714    1.0000 </r>
       <r>    4.8574    1.0000 </r>
       <r>    4.8574    1.0000 </r>
       <r>    4.8574    1.0000 </r>
       <r>    6.1168    1.0000 </r>
       <r>    6.1168    1.0000 </r>
       <r>    6.1169    1.0000 </r>
       <r>    6.8990    1.0000 </r>
       <r>    6.8990    1.0000 </r>
       <r>    6.9033    1.0000 </r>
       <r>    6.9033    1.0000 </r>
       <r>    6.9034    1.0000 </r>
       <r>    6.9034    1.0000 </r>
       <r>    6.9034    1.0000 </r>
       <r>    6.9034    1.0000 </r>
       <r>    6.9035    1.0000 </r>
       <r>    6.9035    1.0000 </r>
       <r>    6.9078    1.0000 </r>
       <r>    6.9078    1.0000 </r>
       <r>    7.9280    0.0000 </r>
       <r>    7.9322    0.0000 </r>
       <r>    7.9322    0.0000 </r>
       <r>    7.9322    0.0000 </r>
       <r>    7.9322    0.0000 </r>
       <r>    7.9363    0.0000 </r>
       <r>    8.6675    0.0000 </r>
       <r>    8.6685    0.0000 </r>
       <r>    8.6685    0.0000 </r>
       <r>    8.6686    0.0000 </r>
       <r>    8.6686    0.0000 </r>
       <r>    8.6696    0.0000 </r>
       <r>    8.9504    0.0000 </r>
       <r>    8.9504    0.0000 </r>
       <r>    8.9521    0.0000 </r>
       <r>    8.9543    0.0000 </r>
       <r>    8.9545    0.0000 </r>
       <r>    8.9545    0.0000 </r>
       <r>    8.9545    0.0000 </r>
       <r>    8.9545    0.0000 </r>
       <r>    8.9546    0.0000 </r>
       <r>    8.9569    0.0000 </r>
       <r>    8.9586    0.0000 </r>
       <r>    8.9586    0.0000 </r>
       <r>   10.3821    0.0000 </r>
       <r>   10.3829    0.0000 </r>
       <r>   10.3835    0.0000 </r>
      </set>
      <set comment="kpoint 2">
       <r>   -3.1952    1.0000 </r>
       <r>   -1.5364    1.0000 </r>
       <r>   -0.9878    1.0000 </r>
       <r>   -0.9877    1.0000 </r>
       <r>   -0.9877    1.0000 </r>
       <r>   -0.9877    1.0000 </r>
       <r>   -0.4413    1.0000 </r>
       <r>    0.6463    1.0000 </r>
       <r>    0.6463    1.0000 </r>
       <r>    0.6463    1.0000 </r>
       <r>    0.6463    1.0000 </r>
       <r>    1.1870    1.0000 </r>
       <r>    1.1870    1.0000 </r>
       <r>    1.1870    1.0000 </r>
       <r>    1.1870    1.0000 </r>
       <r>    1.7254    1.0000 </r>
       <r>    1.7254    1.0000 </r>
       <r>    1.7254    1.0000 </r>
       <r>    1.7254    1.0000 </r>
       <r>    2.7961    1.0000 </r>
       <r>    2.7961    1.0000 </r>
       <r>    2.7961    1.0000 </r>
       <r>    2.7961    1.0000 </r>
       <r>    3.8712    1.0000 </r>
       <r>    3.8712    1.0000 </r>
       <r>    3.8712    1.0000 </r>
       <r>    3.8712    1.0000 </r>
       <r>    4.2827    1.0000 </r>
       <r>    4.8893    1.0000 </r>
       <r>    4.8893    1.0000 </r>
       <r>    6.1507    1.0000 </r>
       <r>    6.1507    1.0000 </r>
       <r>    6.3557    1.0000 </r>
       <r>    6.3557    1.0000 </r>
       <r>    6.3557    1.0000 </r>
       <r>    6.3557    1.0000 </r>
       <r>    6.4232    1.0000 </r>
       <r>    6.4232    1.0000 </r>
       <r>    6.7520    1.0000 </r>
       <r>    6.9354    1.0000 </r>
       <r>    6.9354    1.0000 </r>
       <r>    6.9354    1.0000 </r>
       <r>    6.9354    1.0000 </r>
       <r>    7.4480    1.0000 </r>
       <r>    7.4480    1.0000 </r>
       <r>    7.6858    0.7170 </r>
       <r>    7.6858    0.7168 </r>
       <r>    8.1947    0.0000 </r>
       <r>    8.1947    0.0000 </r>
       <r>    8.1947    0.0000 </r>
       <r>    8.1947    0.0000 </r>
       <r>    8.4386    0.0000 </r>
       <r>    8.4386    0.0000 </r>
       <r>    8.4387    0.0000 </r>
       <r>    8.4388    0.0000 </r>
       <r>    8.4734    0.0000 </r>
       <r>    8.4734    0.0000 </r>
       <r>    8.4735    0.0000 </r>
       <r>    8.4735    0.0000 </r>
       <r>    8.9748    0.0000 </r>
       <r>    8.9748    0.0000 </r>
       <r>    9.0461    0.0000 </r>
       <r>    9.0461    0.0000 </r>
       <r>    9.0461    0.0000 </r>
       <r>    9.0462    0.0000 </r>
       <r>    9.4998    0.0000 </r>
       <r>    9.4999    0.0000 </r>
       <r>    9.4999    0.0000 </r>
       <r>    9.4999    0.0000 </r>
       <r>    9.8993    0.0000 </r>
       <r>    9.8993    0.0000 </r>
       <r>    9.8993    0.0000 </r>
      </set>
      <set comment="kpoint 3">
       <r>   -3.1952    1.0000 </r>
       <r>   -1.5364    1.0000 </r>
       <r>   -0.9906    1.0000 </r>
       <r>   -0.9877    1.0000 </r>
       <r>   -0.9877    1.0000 </r>
       <r>   -0.9849    1.0000 </r>
       <r>   -0.4413    1.0000 </r>
       <r>    0.6434    1.0000 </r>
       <r>    0.6463    1.0000 </r>
       <r>    0.6463    1.0000 </r>
       <r>    0.6492    1.0000 </r>
       <r>    1.1848    1.0000 </r>
       <r>    1.1858    1.0000 </r>
       <r>    1.1881    1.0000 </r>
       <r>    1.1892    1.0000 </r>
       <r>    1.7225    1.0000 </r>
       <r>    1.7254    1.0000 </r>
       <r>    1.7254    1.0000 </r>
       <r>    1.7283    1.0000 </r>
       <r>    2.7939    1.0000 </r>
       <r>    2.7950    1.0000 </r>
       <r>    2.7973    1.0000 </r>
       <r>    2.7983    1.0000 </r>
       <r>    3.8690    1.0000 </r>
       <r>    3.8700    1.0000 </r>
       <r>    3.8723    1.0000 </r>
       <r>    3.8734    1.0000 </r>
       <r>    4.2827    1.0000 </r>
       <r>    4.8893    1.0000 </r>
       <r>    4.8893    1.0000 </r>
       <r>    6.1507    1.0000 </r>
       <r>    6.1507    1.0000 </r>
       <r>    6.3525    1.0000 </r>
       <r>    6.3557    1.0000 </r>
       <r>    6.3557    1.0000 </r>
       <r>    6.3588    1.0000 </r>
       <r>    6.4232    1.0000 </r>
       <r>    6.4233    1.0000 </r>
       <r>    6.7520    1.0000 </r>
       <r>    6.9327    1.0000 </r>
       <r>    6.9354    1.0000 </r>
       <r>    6.9354    1.0000 </r>
       <r>    6.9381    1.0000 </r>
       <r>    7.4480    1.0000 </r>
       <r>    7.4480    1.0000 </r>
       <r>    7.6858    0.7171 </r>
       <r>    7.6858    0.7167 </r>
       <r>    8.1921    0.0000 </r>
       <r>    8.1947    0.0000 </r>
       <r>    8.1947    0.0000 </r>
       <r>    8.1972    0.0000 </r>
       <r>    8.4361    0.0000 </r>
       <r>    8.4376    0.0000 </r>
       <r>    8.4398    0.0000 </r>
       <r>    8.4413    0.0000 </r>
       <r>    8.4707    0.0000 </r>
       <r>    8.4734    0.0000 </r>
       <r>    8.4736    0.0000 </r>
       <r>    8.4762    0.0000 </r>
       <r>    8.9748    0.0000 </r>
       <r>    8.9749    0.0000 </r>
       <r>    9.0445    0.0000 </r>
       <r>    9.0461    0.0000 </r>
       <r>    9.0461    0.0000 </r>
       <r>    9.0478    0.0000 </r>
       <r>    9.4971    0.0000 </r>
       <r>    9.4998    0.0000 </r>
       <r>    9.4999    0.0000 </r>
       <r>    9.5026    0.0000 </r>
       <r>    9.8979    0.0000 </r>
       <r>    9.8993    0.0000 </r>
       <r>    9.9008    0.0000 </r>
      </set>
      <set comment="kpoint 4">
       <r>   -3.0910    1.0000 </r>
       <r>   -1.9838    1.0000 </r>
       <r>   -0.8851    1.0000 </r>
       <r>   -0.8851    1.0000 </r>
       <r>   -0.8851    1.0000 </r>
       <r>   -0.8851    1.0000 </r>
       <r>    0.2024    1.0000 </r>
       <r>    0.2056    1.0000 </r>
       <r>    0.2056    1.0000 </r>
       <r>    0.2056    1.0000 </r>
       <r>    0.2077    1.0000 </r>
       <r>    1.2882    1.0000 </r>
       <r>    1.2882    1.0000 </r>
       <r>    1.2882    1.0000 </r>
       <r>    1.2882    1.0000 </r>
       <r>    2.3591    1.0000 </r>
       <r>    2.3609    1.0000 </r>
       <r>    2.3609    1.0000 </r>
       <r>    2.3617    1.0000 </r>
       <r>    2.3631    1.0000 </r>
       <r>    2.3639    1.0000 </r>
       <r>    2.3639    1.0000 </r>
       <r>    2.3658    1.0000 </r>
       <r>    3.3937    1.0000 </r>
       <r>    4.4977    1.0000 </r>
       <r>    4.4977    1.0000 </r>
       <r>    4.4978    1.0000 </r>
       <r>    4.4978    1.0000 </r>
       <r>    4.9850    1.0000 </r>
       <r>    4.9850    1.0000 </r>
       <r>    5.4937    1.0000 </r>
       <r>    5.4937    1.0000 </r>
       <r>    5.4937    1.0000 </r>
       <r>    5.4937    1.0000 </r>
       <r>    6.0073    1.0000 </r>
       <r>    6.0073    1.0000 </r>
       <r>    6.2520    1.0000 </r>
       <r>    6.2520    1.0000 </r>
       <r>    7.0315    1.0000 </r>
       <r>    7.0315    1.0000 </r>
       <r>    7.0315    1.0000 </r>
       <r>    7.0315    1.0000 </r>
       <r>    7.3024    1.0000 </r>
       <r>    7.3024    1.0000 </r>
       <r>    7.5930    0.9993 </r>
       <r>    7.5930    0.9993 </r>
       <r>    7.5930    0.9993 </r>
       <r>    7.5930    0.9993 </r>
       <r>    7.8224    0.0005 </r>
       <r>    8.0546    0.0000 </r>
       <r>    8.0546    0.0000 </r>
       <r>    8.0567    0.0000 </r>
       <r>    8.0567    0.0000 </r>
       <r>    8.0592    0.0000 </r>
       <r>    8.0592    0.0000 </r>
       <r>    8.3864    0.0000 </r>
       <r>    8.3864    0.0000 </r>
       <r>    8.3864    0.0000 </r>
       <r>    8.3864    0.0000 </r>
       <r>    9.4756    0.0000 </r>
       <r>    9.4757    0.0000 </r>
       <r>    9.4757    0.0000 </r>
       <r>    9.4757    0.0000 </r>
       <r>    9.5371    0.0000 </r>
       <r>    9.5371    0.0000 </r>
       <r>    9.9928    0.0000 </r>
       <r>    9.9928    0.0000 </r>
       <r>    9.9929    0.0000 </r>
       <r>    9.9930    0.0000 </r>
       <r>   10.1096    0.0000 </r>
       <r>   10.1096    0.0000 </r>
       <r>   10.1096    0.0000 </r>
      </set>
      <set comment="kpoint 5">
       <r>   -3.0910    1.0000 </r>
       <r>   -1.9838    1.0000 </r>
       <r>   -0.8880    1.0000 </r>
       <r>   -0.8851    1.0000 </r>
       <r>   -0.8851    1.0000 </r>
       <r>   -0.8822    1.0000 </r>
       <r>    0.2025    1.0000 </r>
       <r>    0.2046    1.0000 </r>
       <r>    0.2056    1.0000 </r>
       <r>    0.2056    1.0000 </r>
       <r>    0.2085    1.0000 </r>
       <r>    1.2860    1.0000 </r>
       <r>    1.2870    1.0000 </r>
       <r>    1.2893    1.0000 </r>
       <r>    1.2904    1.0000 </r>
       <r>    2.3585    1.0000 </r>
       <r>    2.3612    1.0000 </r>
       <r>    2.3614    1.0000 </r>
       <r>    2.3617    1.0000 </r>
       <r>    2.3623    1.0000 </r>
       <r>    2.3641    1.0000 </r>
       <r>    2.3644    1.0000 </r>
       <r>    2.3659    1.0000 </r>
       <r>    3.3936    1.0000 </r>
       <r>    4.4955    1.0000 </r>
       <r>    4.4966    1.0000 </r>
       <r>    4.4989    1.0000 </r>
       <r>    4.5000    1.0000 </r>
       <r>    4.9850    1.0000 </r>
       <r>    4.9850    1.0000 </r>
       <r>    5.4907    1.0000 </r>
       <r>    5.4937    1.0000 </r>
       <r>    5.4937    1.0000 </r>
       <r>    5.4968    1.0000 </r>
       <r>    6.0073    1.0000 </r>
       <r>    6.0074    1.0000 </r>
       <r>    6.2520    1.0000 </r>
       <r>    6.2520    1.0000 </r>
       <r>    7.0288    1.0000 </r>
       <r>    7.0315    1.0000 </r>
       <r>    7.0315    1.0000 </r>
       <r>    7.0342    1.0000 </r>
       <r>    7.3024    1.0000 </r>
       <r>    7.3024    1.0000 </r>
       <r>    7.5906    0.9995 </r>
       <r>    7.5918    0.9994 </r>
       <r>    7.5941    0.9992 </r>
       <r>    7.5954    0.9991 </r>
       <r>    7.8224    0.0005 </r>
       <r>    8.0536    0.0000 </r>
       <r>    8.0566    0.0000 </r>
       <r>    8.0567    0.0000 </r>
       <r>    8.0571    0.0000 </r>
       <r>    8.0572    0.0000 </r>
       <r>    8.0599    0.0000 </r>
       <r>    8.3841    0.0000 </r>
       <r>    8.3864    0.0000 </r>
       <r>    8.3864    0.0000 </r>
       <r>    8.3887    0.0000 </r>
       <r>    9.4735    0.0000 </r>
       <r>    9.4757    0.0000 </r>
       <r>    9.4757    0.0000 </r>
       <r>    9.4779    0.0000 </r>
       <r>    9.5370    0.0000 </r>
       <r>    9.5370    0.0000 </r>
       <r>    9.9905    0.0000 </r>
       <r>    9.9928    0.0000 </r>
       <r>    9.9929    0.0000 </r>
       <r>    9.9952    0.0000 </r>
       <r>   10.1076    0.0000 </r>
       <r>   10.1096    0.0000 </r>
       <r>   10.1101    0.0000 </r>
      </set>
      <set comment="kpoint 6">
       <r>   -2.9174    1.0000 </r>
       <r>   -2.3634    1.0000 </r>
       <r>   -0.7142    1.0000 </r>
       <r>   -0.7142    1.0000 </r>
       <r>   -0.7142    1.0000 </r>
       <r>   -0.7142    1.0000 </r>
       <r>   -0.1685    1.0000 </r>
       <r>   -0.1685    1.0000 </r>
       <r>   -0.1685    1.0000 </r>
       <r>   -0.1685    1.0000 </r>
       <r>    0.9143    1.0000 </r>
       <r>    1.4567    1.0000 </r>
       <r>    1.4567    1.0000 </r>
       <r>    1.4567    1.0000 </r>
       <r>    1.4567    1.0000 </r>
       <r>    1.9947    1.0000 </r>
       <r>    1.9947    1.0000 </r>
       <r>    1.9947    1.0000 </r>
       <r>    1.9947    1.0000 </r>
       <r>    2.5153    1.0000 </r>
       <r>    3.0606    1.0000 </r>
       <r>    3.0606    1.0000 </r>
       <r>    3.0606    1.0000 </r>
       <r>    3.0606    1.0000 </r>
       <r>    4.6345    1.0000 </r>
       <r>    4.6345    1.0000 </r>
       <r>    4.6345    1.0000 </r>
       <r>    4.6345    1.0000 </r>
       <r>    5.1446    1.0000 </r>
       <r>    5.1446    1.0000 </r>
       <r>    5.1880    1.0000 </r>
       <r>    5.1880    1.0000 </r>
       <r>    5.1880    1.0000 </r>
       <r>    5.1880    1.0000 </r>
       <r>    5.6557    1.0000 </r>
       <r>    5.6557    1.0000 </r>
       <r>    6.4202    1.0000 </r>
       <r>    6.4202    1.0000 </r>
       <r>    6.7440    1.0000 </r>
       <r>    6.7440    1.0000 </r>
       <r>    6.7440    1.0000 </r>
       <r>    6.7440    1.0000 </r>
       <r>    6.9501    1.0000 </r>
       <r>    6.9501    1.0000 </r>
       <r>    7.1916    1.0000 </r>
       <r>    7.1916    1.0000 </r>
       <r>    7.1916    1.0000 </r>
       <r>    7.1916    1.0000 </r>
       <r>    7.7041    0.5225 </r>
       <r>    7.7041    0.5225 </r>
       <r>    7.7041    0.5225 </r>
       <r>    7.7041    0.5225 </r>
       <r>    8.5743    0.0000 </r>
       <r>    8.5743    0.0000 </r>
       <r>    8.5743    0.0000 </r>
       <r>    8.5743    0.0000 </r>
       <r>    8.7309    0.0000 </r>
       <r>    8.7309    0.0000 </r>
       <r>    9.0027    0.0000 </r>
       <r>    9.1137    0.0000 </r>
       <r>    9.1137    0.0000 </r>
       <r>    9.1137    0.0000 </r>
       <r>    9.1137    0.0000 </r>
       <r>   10.1833    0.0000 </r>
       <r>   10.1833    0.0000 </r>
       <r>   10.2724    0.0000 </r>
       <r>   10.2724    0.0000 </r>
       <r>   10.7836    0.0000 </r>
       <r>   10.7836    0.0000 </r>
       <r>   10.7836    0.0000 </r>
       <r>   10.7836    0.0000 </r>
       <r>   11.1229    0.0000 </r>
      </set>
      <set comment="kpoint 7">
       <r>   -2.9174    1.0000 </r>
       <r>   -2.3634    1.0000 </r>
       <r>   -0.7171    1.0000 </r>
       <r>   -0.7142    1.0000 </r>
       <r>   -0.7142    1.0000 </r>
       <r>   -0.7113    1.0000 </r>
       <r>   -0.1713    1.0000 </r>
       <r>   -0.1685    1.0000 </r>
       <r>   -0.1685    1.0000 </r>
       <r>   -0.1656    1.0000 </r>
       <r>    0.9142    1.0000 </r>
       <r>    1.4545    1.0000 </r>
       <r>    1.4556    1.0000 </r>
       <r>    1.4578    1.0000 </r>
       <r>    1.4589    1.0000 </r>
       <r>    1.9925    1.0000 </r>
       <r>    1.9935    1.0000 </r>
       <r>    1.9958    1.0000 </r>
       <r>    1.9969    1.0000 </r>
       <r>    2.5153    1.0000 </r>
       <r>    3.0577    1.0000 </r>
       <r>    3.0606    1.0000 </r>
       <r>    3.0606    1.0000 </r>
       <r>    3.0636    1.0000 </r>
       <r>    4.6315    1.0000 </r>
       <r>    4.6345    1.0000 </r>
       <r>    4.6345    1.0000 </r>
       <r>    4.6375    1.0000 </r>
       <r>    5.1446    1.0000 </r>
       <r>    5.1446    1.0000 </r>
       <r>    5.1858    1.0000 </r>
       <r>    5.1869    1.0000 </r>
       <r>    5.1892    1.0000 </r>
       <r>    5.1903    1.0000 </r>
       <r>    5.6557    1.0000 </r>
       <r>    5.6557    1.0000 </r>
       <r>    6.4202    1.0000 </r>
       <r>    6.4202    1.0000 </r>
       <r>    6.7416    1.0000 </r>
       <r>    6.7428    1.0000 </r>
       <r>    6.7452    1.0000 </r>
       <r>    6.7463    1.0000 </r>
       <r>    6.9501    1.0000 </r>
       <r>    6.9501    1.0000 </r>
       <r>    7.1889    1.0000 </r>
       <r>    7.1916    1.0000 </r>
       <r>    7.1916    1.0000 </r>
       <r>    7.1943    1.0000 </r>
       <r>    7.7014    0.5530 </r>
       <r>    7.7041    0.5225 </r>
       <r>    7.7041    0.5222 </r>
       <r>    7.7069    0.4916 </r>
       <r>    8.5721    0.0000 </r>
       <r>    8.5743    0.0000 </r>
       <r>    8.5743    0.0000 </r>
       <r>    8.5766    0.0000 </r>
       <r>    8.7309    0.0000 </r>
       <r>    8.7309    0.0000 </r>
       <r>    9.0027    0.0000 </r>
       <r>    9.1115    0.0000 </r>
       <r>    9.1137    0.0000 </r>
       <r>    9.1137    0.0000 </r>
       <r>    9.1159    0.0000 </r>
       <r>   10.1833    0.0000 </r>
       <r>   10.1833    0.0000 </r>
       <r>   10.2724    0.0000 </r>
       <r>   10.2724    0.0000 </r>
       <r>   10.7808    0.0000 </r>
       <r>   10.7836    0.0000 </r>
       <r>   10.7836    0.0000 </r>
       <r>   10.7864    0.0000 </r>
       <r>   11.1232    0.0000 </r>
      </set>
      <set comment="kpoint 8">
       <r>   -2.6763    1.0000 </r>
       <r>   -2.6733    1.0000 </r>
       <r>   -0.4792    1.0000 </r>
       <r>   -0.4761    1.0000 </r>
       <r>   -0.4761    1.0000 </r>
       <r>   -0.4753    1.0000 </r>
       <r>   -0.4750    1.0000 </r>
       <r>   -0.4743    1.0000 </r>
       <r>   -0.4743    1.0000 </r>
       <r>   -0.4712    1.0000 </r>
       <r>    1.6835    1.0000 </r>
       <r>    1.6859    1.0000 </r>
       <r>    1.6907    1.0000 </r>
       <r>    1.6910    1.0000 </r>
       <r>    1.6910    1.0000 </r>
       <r>    1.6918    1.0000 </r>
       <r>    1.6928    1.0000 </r>
       <r>    1.6937    1.0000 </r>
       <r>    1.6937    1.0000 </r>
       <r>    1.6961    1.0000 </r>
       <r>    3.8188    1.0000 </r>
       <r>    3.8189    1.0000 </r>
       <r>    3.8189    1.0000 </r>
       <r>    3.8196    1.0000 </r>
       <r>    3.8199    1.0000 </r>
       <r>    3.8206    1.0000 </r>
       <r>    3.8206    1.0000 </r>
       <r>    3.8208    1.0000 </r>
       <r>    5.3666    1.0000 </r>
       <r>    5.3666    1.0000 </r>
       <r>    5.3698    1.0000 </r>
       <r>    5.3698    1.0000 </r>
       <r>    5.9373    1.0000 </r>
       <r>    5.9373    1.0000 </r>
       <r>    5.9379    1.0000 </r>
       <r>    5.9381    1.0000 </r>
       <r>    5.9386    1.0000 </r>
       <r>    5.9389    1.0000 </r>
       <r>    5.9395    1.0000 </r>
       <r>    5.9395    1.0000 </r>
       <r>    6.6519    1.0000 </r>
       <r>    6.6528    1.0000 </r>
       <r>    6.6548    1.0000 </r>
       <r>    6.6558    1.0000 </r>
       <r>    7.4134    1.0000 </r>
       <r>    7.4134    1.0000 </r>
       <r>    7.4143    1.0000 </r>
       <r>    7.4156    1.0000 </r>
       <r>    7.4159    1.0000 </r>
       <r>    7.4172    1.0000 </r>
       <r>    7.4182    1.0000 </r>
       <r>    7.4182    1.0000 </r>
       <r>    8.8115    0.0000 </r>
       <r>    8.8125    0.0000 </r>
       <r>    8.8125    0.0000 </r>
       <r>    8.8127    0.0000 </r>
       <r>    8.8149    0.0000 </r>
       <r>    8.8150    0.0000 </r>
       <r>    8.8150    0.0000 </r>
       <r>    8.8161    0.0000 </r>
       <r>    9.4682    0.0000 </r>
       <r>    9.4682    0.0000 </r>
       <r>    9.4705    0.0000 </r>
       <r>    9.4705    0.0000 </r>
       <r>   10.2540    0.0000 </r>
       <r>   10.2554    0.0000 </r>
       <r>   10.8799    0.0000 </r>
       <r>   10.8805    0.0000 </r>
       <r>   10.8817    0.0000 </r>
       <r>   10.8823    0.0000 </r>
       <r>   11.5212    0.0000 </r>
       <r>   11.5227    0.0000 </r>
      </set>
      <set comment="kpoint 9">
       <r>   -2.6748    1.0000 </r>
       <r>   -2.6748    1.0000 </r>
       <r>   -0.4804    1.0000 </r>
       <r>   -0.4757    1.0000 </r>
       <r>   -0.4752    1.0000 </r>
       <r>   -0.4752    1.0000 </r>
       <r>   -0.4752    1.0000 </r>
       <r>   -0.4752    1.0000 </r>
       <r>   -0.4746    1.0000 </r>
       <r>   -0.4700    1.0000 </r>
       <r>    1.6844    1.0000 </r>
       <r>    1.6856    1.0000 </r>
       <r>    1.6895    1.0000 </r>
       <r>    1.6903    1.0000 </r>
       <r>    1.6919    1.0000 </r>
       <r>    1.6921    1.0000 </r>
       <r>    1.6926    1.0000 </r>
       <r>    1.6930    1.0000 </r>
       <r>    1.6944    1.0000 </r>
       <r>    1.6966    1.0000 </r>
       <r>    3.8166    1.0000 </r>
       <r>    3.8170    1.0000 </r>
       <r>    3.8198    1.0000 </r>
       <r>    3.8198    1.0000 </r>
       <r>    3.8198    1.0000 </r>
       <r>    3.8198    1.0000 </r>
       <r>    3.8225    1.0000 </r>
       <r>    3.8230    1.0000 </r>
       <r>    5.3682    1.0000 </r>
       <r>    5.3682    1.0000 </r>
       <r>    5.3682    1.0000 </r>
       <r>    5.3682    1.0000 </r>
       <r>    5.9354    1.0000 </r>
       <r>    5.9368    1.0000 </r>
       <r>    5.9371    1.0000 </r>
       <r>    5.9374    1.0000 </r>
       <r>    5.9394    1.0000 </r>
       <r>    5.9397    1.0000 </r>
       <r>    5.9400    1.0000 </r>
       <r>    5.9413    1.0000 </r>
       <r>    6.6538    1.0000 </r>
       <r>    6.6538    1.0000 </r>
       <r>    6.6538    1.0000 </r>
       <r>    6.6538    1.0000 </r>
       <r>    7.4108    1.0000 </r>
       <r>    7.4153    1.0000 </r>
       <r>    7.4158    1.0000 </r>
       <r>    7.4158    1.0000 </r>
       <r>    7.4158    1.0000 </r>
       <r>    7.4158    1.0000 </r>
       <r>    7.4162    1.0000 </r>
       <r>    7.4208    1.0000 </r>
       <r>    8.8098    0.0000 </r>
       <r>    8.8133    0.0000 </r>
       <r>    8.8138    0.0000 </r>
       <r>    8.8138    0.0000 </r>
       <r>    8.8138    0.0000 </r>
       <r>    8.8138    0.0000 </r>
       <r>    8.8142    0.0000 </r>
       <r>    8.8177    0.0000 </r>
       <r>    9.4693    0.0000 </r>
       <r>    9.4693    0.0000 </r>
       <r>    9.4693    0.0000 </r>
       <r>    9.4693    0.0000 </r>
       <r>   10.2547    0.0000 </r>
       <r>   10.2547    0.0000 </r>
       <r>   10.8811    0.0000 </r>
       <r>   10.8811    0.0000 </r>
       <r>   10.8811    0.0000 </r>
       <r>   10.8811    0.0000 </r>
       <r>   11.5208    0.0000 </r>
       <r>   11.5222    0.0000 </r>
      </set>
      <set comment="kpoint 10">
       <r>   -3.1605    1.0000 </r>
       <r>   -1.5032    1.0000 </r>
       <r>   -1.5009    1.0000 </r>
       <r>   -0.9535    1.0000 </r>
       <r>   -0.9535    1.0000 </r>
       <r>   -0.4084    1.0000 </r>
       <r>   -0.4061    1.0000 </r>
       <r>    0.1377    1.0000 </r>
       <r>    0.6785    1.0000 </r>
       <r>    0.6795    1.0000 </r>
       <r>    0.6809    1.0000 </r>
       <r>    0.6818    1.0000 </r>
       <r>    1.2199    1.0000 </r>
       <r>    1.2210    1.0000 </r>
       <r>    1.7573    1.0000 </r>
       <r>    1.7583    1.0000 </r>
       <r>    1.7597    1.0000 </r>
       <r>    1.7607    1.0000 </r>
       <r>    2.2951    1.0000 </r>
       <r>    2.2964    1.0000 </r>
       <r>    2.2966    1.0000 </r>
       <r>    3.2958    1.0000 </r>
       <r>    3.2958    1.0000 </r>
       <r>    3.4395    1.0000 </r>
       <r>    3.4395    1.0000 </r>
       <r>    4.3149    1.0000 </r>
       <r>    4.3158    1.0000 </r>
       <r>    4.4322    1.0000 </r>
       <r>    4.4322    1.0000 </r>
       <r>    4.9212    1.0000 </r>
       <r>    5.8724    1.0000 </r>
       <r>    5.8747    1.0000 </r>
       <r>    6.1845    1.0000 </r>
       <r>    6.3209    1.0000 </r>
       <r>    6.3209    1.0000 </r>
       <r>    6.4538    1.0000 </r>
       <r>    6.4564    1.0000 </r>
       <r>    6.4661    1.0000 </r>
       <r>    6.4663    1.0000 </r>
       <r>    6.7846    1.0000 </r>
       <r>    6.7855    1.0000 </r>
       <r>    6.8899    1.0000 </r>
       <r>    6.8916    1.0000 </r>
       <r>    7.4787    1.0000 </r>
       <r>    7.4814    1.0000 </r>
       <r>    7.7989    0.0043 </r>
       <r>    7.8007    0.0037 </r>
       <r>    7.9530    0.0000 </r>
       <r>    7.9539    0.0000 </r>
       <r>    7.9553    0.0000 </r>
       <r>    7.9563    0.0000 </r>
       <r>    7.9925    0.0000 </r>
       <r>    8.2393    0.0000 </r>
       <r>    8.2416    0.0000 </r>
       <r>    8.6444    0.0000 </r>
       <r>    8.6445    0.0000 </r>
       <r>    8.9853    0.0000 </r>
       <r>    8.9863    0.0000 </r>
       <r>    8.9865    0.0000 </r>
       <r>    8.9876    0.0000 </r>
       <r>    9.0178    0.0000 </r>
       <r>    9.0197    0.0000 </r>
       <r>    9.0621    0.0000 </r>
       <r>    9.0629    0.0000 </r>
       <r>    9.2249    0.0000 </r>
       <r>    9.2249    0.0000 </r>
       <r>    9.4131    0.0000 </r>
       <r>    9.5090    0.0000 </r>
       <r>    9.5110    0.0000 </r>
       <r>   10.0452    0.0000 </r>
       <r>   10.4454    0.0000 </r>
       <r>   10.4594    0.0000 </r>
      </set>
      <set comment="kpoint 11">
       <r>   -3.1605    1.0000 </r>
       <r>   -1.5021    1.0000 </r>
       <r>   -1.5021    1.0000 </r>
       <r>   -0.9552    1.0000 </r>
       <r>   -0.9519    1.0000 </r>
       <r>   -0.4072    1.0000 </r>
       <r>   -0.4072    1.0000 </r>
       <r>    0.1377    1.0000 </r>
       <r>    0.6775    1.0000 </r>
       <r>    0.6795    1.0000 </r>
       <r>    0.6809    1.0000 </r>
       <r>    0.6829    1.0000 </r>
       <r>    1.2205    1.0000 </r>
       <r>    1.2205    1.0000 </r>
       <r>    1.7563    1.0000 </r>
       <r>    1.7583    1.0000 </r>
       <r>    1.7597    1.0000 </r>
       <r>    1.7617    1.0000 </r>
       <r>    2.2946    1.0000 </r>
       <r>    2.2953    1.0000 </r>
       <r>    2.2980    1.0000 </r>
       <r>    3.2957    1.0000 </r>
       <r>    3.2958    1.0000 </r>
       <r>    3.4395    1.0000 </r>
       <r>    3.4395    1.0000 </r>
       <r>    4.3153    1.0000 </r>
       <r>    4.3153    1.0000 </r>
       <r>    4.4305    1.0000 </r>
       <r>    4.4339    1.0000 </r>
       <r>    4.9212    1.0000 </r>
       <r>    5.8735    1.0000 </r>
       <r>    5.8735    1.0000 </r>
       <r>    6.1845    1.0000 </r>
       <r>    6.3208    1.0000 </r>
       <r>    6.3209    1.0000 </r>
       <r>    6.4550    1.0000 </r>
       <r>    6.4552    1.0000 </r>
       <r>    6.4661    1.0000 </r>
       <r>    6.4663    1.0000 </r>
       <r>    6.7851    1.0000 </r>
       <r>    6.7851    1.0000 </r>
       <r>    6.8907    1.0000 </r>
       <r>    6.8907    1.0000 </r>
       <r>    7.4801    1.0000 </r>
       <r>    7.4801    1.0000 </r>
       <r>    7.7998    0.0040 </r>
       <r>    7.7999    0.0040 </r>
       <r>    7.9517    0.0000 </r>
       <r>    7.9538    0.0000 </r>
       <r>    7.9555    0.0000 </r>
       <r>    7.9574    0.0000 </r>
       <r>    7.9926    0.0000 </r>
       <r>    8.2404    0.0000 </r>
       <r>    8.2405    0.0000 </r>
       <r>    8.6445    0.0000 </r>
       <r>    8.6445    0.0000 </r>
       <r>    8.9842    0.0000 </r>
       <r>    8.9849    0.0000 </r>
       <r>    8.9880    0.0000 </r>
       <r>    8.9885    0.0000 </r>
       <r>    9.0188    0.0000 </r>
       <r>    9.0189    0.0000 </r>
       <r>    9.0625    0.0000 </r>
       <r>    9.0625    0.0000 </r>
       <r>    9.2249    0.0000 </r>
       <r>    9.2249    0.0000 </r>
       <r>    9.4131    0.0000 </r>
       <r>    9.5100    0.0000 </r>
       <r>    9.5100    0.0000 </r>
       <r>   10.0452    0.0000 </r>
       <r>   10.4455    0.0000 </r>
       <r>   10.4483    0.0000 </r>
      </set>
      <set comment="kpoint 12">
       <r>   -3.0563    1.0000 </r>
       <r>   -1.9493    1.0000 </r>
       <r>   -1.3990    1.0000 </r>
       <r>   -0.8509    1.0000 </r>
       <r>   -0.8509    1.0000 </r>
       <r>   -0.3054    1.0000 </r>
       <r>   -0.3042    1.0000 </r>
       <r>    0.2371    1.0000 </r>
       <r>    0.2395    1.0000 </r>
       <r>    0.2409    1.0000 </r>
       <r>    0.7809    1.0000 </r>
       <r>    0.7818    1.0000 </r>
       <r>    0.7823    1.0000 </r>
       <r>    1.8576    1.0000 </r>
       <r>    1.8596    1.0000 </r>
       <r>    1.8598    1.0000 </r>
       <r>    1.8608    1.0000 </r>
       <r>    1.8621    1.0000 </r>
       <r>    2.3952    1.0000 </r>
       <r>    2.3952    1.0000 </r>
       <r>    2.9271    1.0000 </r>
       <r>    2.9288    1.0000 </r>
       <r>    2.9307    1.0000 </r>
       <r>    3.4267    1.0000 </r>
       <r>    4.0034    1.0000 </r>
       <r>    4.0034    1.0000 </r>
       <r>    4.4131    1.0000 </r>
       <r>    5.0051    1.0000 </r>
       <r>    5.0169    1.0000 </r>
       <r>    5.0582    1.0000 </r>
       <r>    5.0582    1.0000 </r>
       <r>    5.4531    1.0000 </r>
       <r>    5.5233    1.0000 </r>
       <r>    5.5233    1.0000 </r>
       <r>    6.0393    1.0000 </r>
       <r>    6.0424    1.0000 </r>
       <r>    6.2856    1.0000 </r>
       <r>    6.5013    1.0000 </r>
       <r>    6.5013    1.0000 </r>
       <r>    6.5512    1.0000 </r>
       <r>    6.8842    1.0000 </r>
       <r>    7.1056    1.0000 </r>
       <r>    7.1056    1.0000 </r>
       <r>    7.2616    1.0000 </r>
       <r>    7.5344    1.0000 </r>
       <r>    7.5344    1.0000 </r>
       <r>    7.5752    0.9999 </r>
       <r>    7.5768    0.9999 </r>
       <r>    7.6314    0.9827 </r>
       <r>    7.8549    0.0000 </r>
       <r>    7.9062    0.0000 </r>
       <r>    7.9194    0.0000 </r>
       <r>    8.0892    0.0000 </r>
       <r>    8.1438    0.0000 </r>
       <r>    8.1438    0.0000 </r>
       <r>    8.6018    0.0000 </r>
       <r>    8.8476    0.0000 </r>
       <r>    8.9615    0.0000 </r>
       <r>    8.9615    0.0000 </r>
       <r>    8.9877    0.0000 </r>
       <r>    9.5800    0.0000 </r>
       <r>    9.5966    0.0000 </r>
       <r>    9.5971    0.0000 </r>
       <r>    9.6015    0.0000 </r>
       <r>    9.6285    0.0000 </r>
       <r>   10.0221    0.0000 </r>
       <r>   10.0425    0.0000 </r>
       <r>   10.0426    0.0000 </r>
       <r>   10.0562    0.0000 </r>
       <r>   10.0562    0.0000 </r>
       <r>   10.0946    0.0000 </r>
       <r>   10.5137    0.0000 </r>
      </set>
      <set comment="kpoint 13">
       <r>   -3.0563    1.0000 </r>
       <r>   -1.9493    1.0000 </r>
       <r>   -1.3991    1.0000 </r>
       <r>   -0.8525    1.0000 </r>
       <r>   -0.8492    1.0000 </r>
       <r>   -0.3050    1.0000 </r>
       <r>   -0.3046    1.0000 </r>
       <r>    0.2375    1.0000 </r>
       <r>    0.2387    1.0000 </r>
       <r>    0.2413    1.0000 </r>
       <r>    0.7799    1.0000 </r>
       <r>    0.7814    1.0000 </r>
       <r>    0.7835    1.0000 </r>
       <r>    1.8576    1.0000 </r>
       <r>    1.8588    1.0000 </r>
       <r>    1.8595    1.0000 </r>
       <r>    1.8614    1.0000 </r>
       <r>    1.8626    1.0000 </r>
       <r>    2.3935    1.0000 </r>
       <r>    2.3968    1.0000 </r>
       <r>    2.9269    1.0000 </r>
       <r>    2.9290    1.0000 </r>
       <r>    2.9307    1.0000 </r>
       <r>    3.4267    1.0000 </r>
       <r>    4.0017    1.0000 </r>
       <r>    4.0051    1.0000 </r>
       <r>    4.4131    1.0000 </r>
       <r>    5.0051    1.0000 </r>
       <r>    5.0169    1.0000 </r>
       <r>    5.0565    1.0000 </r>
       <r>    5.0599    1.0000 </r>
       <r>    5.4531    1.0000 </r>
       <r>    5.5216    1.0000 </r>
       <r>    5.5250    1.0000 </r>
       <r>    6.0388    1.0000 </r>
       <r>    6.0429    1.0000 </r>
       <r>    6.2856    1.0000 </r>
       <r>    6.4995    1.0000 </r>
       <r>    6.5031    1.0000 </r>
       <r>    6.5513    1.0000 </r>
       <r>    6.8842    1.0000 </r>
       <r>    7.1038    1.0000 </r>
       <r>    7.1073    1.0000 </r>
       <r>    7.2616    1.0000 </r>
       <r>    7.5326    1.0000 </r>
       <r>    7.5362    1.0000 </r>
       <r>    7.5760    0.9999 </r>
       <r>    7.5762    0.9999 </r>
       <r>    7.6314    0.9827 </r>
       <r>    7.8549    0.0000 </r>
       <r>    7.9062    0.0000 </r>
       <r>    7.9193    0.0000 </r>
       <r>    8.0893    0.0000 </r>
       <r>    8.1420    0.0000 </r>
       <r>    8.1456    0.0000 </r>
       <r>    8.6019    0.0000 </r>
       <r>    8.8476    0.0000 </r>
       <r>    8.9602    0.0000 </r>
       <r>    8.9628    0.0000 </r>
       <r>    8.9877    0.0000 </r>
       <r>    9.5800    0.0000 </r>
       <r>    9.5951    0.0000 </r>
       <r>    9.5987    0.0000 </r>
       <r>    9.6013    0.0000 </r>
       <r>    9.6286    0.0000 </r>
       <r>   10.0221    0.0000 </r>
       <r>   10.0412    0.0000 </r>
       <r>   10.0439    0.0000 </r>
       <r>   10.0547    0.0000 </r>
       <r>   10.0578    0.0000 </r>
       <r>   10.0946    0.0000 </r>
       <r>   10.5139    0.0000 </r>
      </set>
      <set comment="kpoint 14">
       <r>   -3.0563    1.0000 </r>
       <r>   -1.9493    1.0000 </r>
       <r>   -1.3990    1.0000 </r>
       <r>   -0.8509    1.0000 </r>
       <r>   -0.8509    1.0000 </r>
       <r>   -0.3061    1.0000 </r>
       <r>   -0.3035    1.0000 </r>
       <r>    0.2385    1.0000 </r>
       <r>    0.2395    1.0000 </r>
       <r>    0.2395    1.0000 </r>
       <r>    0.7801    1.0000 </r>
       <r>    0.7818    1.0000 </r>
       <r>    0.7830    1.0000 </r>
       <r>    1.8576    1.0000 </r>
       <r>    1.8592    1.0000 </r>
       <r>    1.8597    1.0000 </r>
       <r>    1.8612    1.0000 </r>
       <r>    1.8622    1.0000 </r>
       <r>    2.3952    1.0000 </r>
       <r>    2.3952    1.0000 </r>
       <r>    2.9287    1.0000 </r>
       <r>    2.9288    1.0000 </r>
       <r>    2.9290    1.0000 </r>
       <r>    3.4267    1.0000 </r>
       <r>    4.0034    1.0000 </r>
       <r>    4.0034    1.0000 </r>
       <r>    4.4131    1.0000 </r>
       <r>    5.0051    1.0000 </r>
       <r>    5.0169    1.0000 </r>
       <r>    5.0582    1.0000 </r>
       <r>    5.0582    1.0000 </r>
       <r>    5.4531    1.0000 </r>
       <r>    5.5233    1.0000 </r>
       <r>    5.5233    1.0000 </r>
       <r>    6.0393    1.0000 </r>
       <r>    6.0424    1.0000 </r>
       <r>    6.2856    1.0000 </r>
       <r>    6.5013    1.0000 </r>
       <r>    6.5013    1.0000 </r>
       <r>    6.5512    1.0000 </r>
       <r>    6.8842    1.0000 </r>
       <r>    7.1055    1.0000 </r>
       <r>    7.1056    1.0000 </r>
       <r>    7.2616    1.0000 </r>
       <r>    7.5344    1.0000 </r>
       <r>    7.5345    1.0000 </r>
       <r>    7.5744    0.9999 </r>
       <r>    7.5777    0.9999 </r>
       <r>    7.6314    0.9827 </r>
       <r>    7.8549    0.0000 </r>
       <r>    7.9062    0.0000 </r>
       <r>    7.9194    0.0000 </r>
       <r>    8.0892    0.0000 </r>
       <r>    8.1438    0.0000 </r>
       <r>    8.1438    0.0000 </r>
       <r>    8.6018    0.0000 </r>
       <r>    8.8476    0.0000 </r>
       <r>    8.9615    0.0000 </r>
       <r>    8.9615    0.0000 </r>
       <r>    8.9877    0.0000 </r>
       <r>    9.5800    0.0000 </r>
       <r>    9.5969    0.0000 </r>
       <r>    9.5971    0.0000 </r>
       <r>    9.6013    0.0000 </r>
       <r>    9.6285    0.0000 </r>
       <r>   10.0221    0.0000 </r>
       <r>   10.0426    0.0000 </r>
       <r>   10.0426    0.0000 </r>
       <r>   10.0562    0.0000 </r>
       <r>   10.0563    0.0000 </r>
       <r>   10.0946    0.0000 </r>
       <r>   10.5136    0.0000 </r>
      </set>
      <set comment="kpoint 15">
       <r>   -2.8828    1.0000 </r>
       <r>   -2.3289    1.0000 </r>
       <r>   -1.2275    1.0000 </r>
       <r>   -0.6813    1.0000 </r>
       <r>   -0.6800    1.0000 </r>
       <r>   -0.6786    1.0000 </r>
       <r>   -0.1360    1.0000 </r>
       <r>   -0.1344    1.0000 </r>
       <r>   -0.1332    1.0000 </r>
       <r>    0.4088    1.0000 </r>
       <r>    0.9475    1.0000 </r>
       <r>    0.9508    1.0000 </r>
       <r>    0.9514    1.0000 </r>
       <r>    1.4907    1.0000 </r>
       <r>    1.4907    1.0000 </r>
       <r>    2.0277    1.0000 </r>
       <r>    2.0277    1.0000 </r>
       <r>    2.5485    1.0000 </r>
       <r>    2.5604    1.0000 </r>
       <r>    2.5632    1.0000 </r>
       <r>    2.5634    1.0000 </r>
       <r>    3.0939    1.0000 </r>
       <r>    3.0939    1.0000 </r>
       <r>    3.6250    1.0000 </r>
       <r>    4.1410    1.0000 </r>
       <r>    4.5759    1.0000 </r>
       <r>    4.6667    1.0000 </r>
       <r>    4.6667    1.0000 </r>
       <r>    4.6940    1.0000 </r>
       <r>    4.6940    1.0000 </r>
       <r>    5.0963    1.0000 </r>
       <r>    5.1766    1.0000 </r>
       <r>    5.1905    1.0000 </r>
       <r>    5.6876    1.0000 </r>
       <r>    5.7466    1.0000 </r>
       <r>    5.7466    1.0000 </r>
       <r>    6.2540    1.0000 </r>
       <r>    6.2540    1.0000 </r>
       <r>    6.4531    1.0000 </r>
       <r>    6.6611    1.0000 </r>
       <r>    6.6611    1.0000 </r>
       <r>    6.7112    1.0000 </r>
       <r>    6.9757    1.0000 </r>
       <r>    7.0486    1.0000 </r>
       <r>    7.1786    1.0000 </r>
       <r>    7.1786    1.0000 </r>
       <r>    7.2235    1.0000 </r>
       <r>    7.2977    1.0000 </r>
       <r>    7.2977    1.0000 </r>
       <r>    7.5663    1.0000 </r>
       <r>    7.7364    0.1961 </r>
       <r>    8.0911    0.0000 </r>
       <r>    8.2330    0.0000 </r>
       <r>    8.2491    0.0000 </r>
       <r>    8.6248    0.0000 </r>
       <r>    8.7630    0.0000 </r>
       <r>    9.0345    0.0000 </r>
       <r>    9.1064    0.0000 </r>
       <r>    9.1609    0.0000 </r>
       <r>    9.1609    0.0000 </r>
       <r>    9.6607    0.0000 </r>
       <r>    9.6976    0.0000 </r>
       <r>    9.6976    0.0000 </r>
       <r>    9.7541    0.0000 </r>
       <r>   10.2190    0.0000 </r>
       <r>   10.2699    0.0000 </r>
       <r>   10.2699    0.0000 </r>
       <r>   10.3023    0.0000 </r>
       <r>   10.3049    0.0000 </r>
       <r>   10.6668    0.0000 </r>
       <r>   10.7445    0.0000 </r>
       <r>   11.1586    0.0000 </r>
      </set>
      <set comment="kpoint 16">
       <r>   -2.8828    1.0000 </r>
       <r>   -2.3289    1.0000 </r>
       <r>   -1.2275    1.0000 </r>
       <r>   -0.6821    1.0000 </r>
       <r>   -0.6799    1.0000 </r>
       <r>   -0.6778    1.0000 </r>
       <r>   -0.1366    1.0000 </r>
       <r>   -0.1346    1.0000 </r>
       <r>   -0.1323    1.0000 </r>
       <r>    0.4088    1.0000 </r>
       <r>    0.9473    1.0000 </r>
       <r>    0.9497    1.0000 </r>
       <r>    0.9527    1.0000 </r>
       <r>    1.4890    1.0000 </r>
       <r>    1.4924    1.0000 </r>
       <r>    2.0260    1.0000 </r>
       <r>    2.0294    1.0000 </r>
       <r>    2.5485    1.0000 </r>
       <r>    2.5604    1.0000 </r>
       <r>    2.5616    1.0000 </r>
       <r>    2.5649    1.0000 </r>
       <r>    3.0922    1.0000 </r>
       <r>    3.0956    1.0000 </r>
       <r>    3.6250    1.0000 </r>
       <r>    4.1410    1.0000 </r>
       <r>    4.5759    1.0000 </r>
       <r>    4.6650    1.0000 </r>
       <r>    4.6684    1.0000 </r>
       <r>    4.6923    1.0000 </r>
       <r>    4.6957    1.0000 </r>
       <r>    5.0963    1.0000 </r>
       <r>    5.1766    1.0000 </r>
       <r>    5.1905    1.0000 </r>
       <r>    5.6877    1.0000 </r>
       <r>    5.7449    1.0000 </r>
       <r>    5.7483    1.0000 </r>
       <r>    6.2522    1.0000 </r>
       <r>    6.2557    1.0000 </r>
       <r>    6.4531    1.0000 </r>
       <r>    6.6592    1.0000 </r>
       <r>    6.6629    1.0000 </r>
       <r>    6.7113    1.0000 </r>
       <r>    6.9757    1.0000 </r>
       <r>    7.0486    1.0000 </r>
       <r>    7.1767    1.0000 </r>
       <r>    7.1804    1.0000 </r>
[...]
       <r>    2.7567    1.0000 </r>
       <r>    2.7567    1.0000 </r>
       <r>    2.7567    1.0000 </r>
       <r>    2.7568    1.0000 </r>
       <r>    2.7568    1.0000 </r>
       <r>    2.7569    1.0000 </r>
       <r>    2.7569    1.0000 </r>
       <r>    2.7569    1.0000 </r>
       <r>    2.7569    1.0000 </r>
       <r>    2.7569    1.0000 </r>
       <r>    2.7573    1.0000 </r>
       <r>    2.7574    1.0000 </r>
       <r>    2.7576    1.0000 </r>
       <r>    2.7609    1.0000 </r>
       <r>    2.7609    1.0000 </r>
       <r>    2.7672    1.0000 </r>
       <r>    6.9661    1.0000 </r>
       <r>    6.9661    1.0000 </r>
       <r>    6.9681    1.0000 </r>
       <r>    6.9700    1.0000 </r>
       <r>    6.9714    1.0000 </r>
       <r>    6.9718    1.0000 </r>
       <r>    6.9718    1.0000 </r>
       <r>    6.9718    1.0000 </r>
       <r>    6.9721    1.0000 </r>
       <r>    6.9721    1.0000 </r>
       <r>    6.9721    1.0000 </r>
       <r>    6.9721    1.0000 </r>
       <r>    6.9722    1.0000 </r>
       <r>    6.9722    1.0000 </r>
       <r>    6.9722    1.0000 </r>
       <r>    6.9722    1.0000 </r>
       <r>    6.9725    1.0000 </r>
       <r>    6.9725    1.0000 </r>
       <r>    6.9725    1.0000 </r>
       <r>    6.9729    1.0000 </r>
       <r>    6.9743    1.0000 </r>
       <r>    6.9763    1.0000 </r>
       <r>    6.9782    1.0000 </r>
       <r>    6.9782    1.0000 </r>
       <r>   11.0959    0.0000 </r>
       <r>   11.0959    0.0000 </r>
       <r>   11.0960    0.0000 </r>
       <r>   11.0965    0.0000 </r>
       <r>   11.0980    0.0000 </r>
       <r>   11.0986    0.0000 </r>
       <r>   11.0986    0.0000 </r>
       <r>   11.0988    0.0000 </r>
       <r>   11.2960    0.0000 </r>
       <r>   11.2975    0.0000 </r>
       <r>   11.2979    0.0000 </r>
       <r>   11.2988    0.0000 </r>
       <r>   11.2989    0.0000 </r>
       <r>   11.2995    0.0000 </r>
       <r>   11.3000    0.0000 </r>
       <r>   11.3007    0.0000 </r>
      </set>
     </set>
    </set>
   </array>
  </eigenvalues>
  <separator name="orbital magnetization" >
   <v name="MAGDIPOLOUT">      0.00000000      0.00000000      0.00000000</v>
  </separator>
  <dos>
   <i name="efermi">      7.70611229 </i>
   <total>
    <array>
     <dimension dim="1">gridpoints</dimension>
     <dimension dim="2">spin</dimension>
     <field>energy</field>
     <field>total</field>
     <field>integrated</field>
     <set>
      <set comment="spin 1">
       <r>    -3.9676     0.0000     0.0000 </r>
       <r>    -3.9135     0.0000     0.0000 </r>
       <r>    -3.8594     0.0000     0.0000 </r>
       <r>    -3.8053     0.0000     0.0000 </r>
       <r>    -3.7513     0.0000     0.0000 </r>
       <r>    -3.6972     0.0000     0.0000 </r>
       <r>    -3.6431     0.0000     0.0000 </r>
       <r>    -3.5890     0.0000     0.0000 </r>
       <r>    -3.5349     0.0000     0.0000 </r>
       <r>    -3.4808     0.0000     0.0000 </r>
       <r>    -3.4267     0.0000     0.0000 </r>
       <r>    -3.3726     0.0000     0.0000 </r>
       <r>    -3.3185     0.0006     0.0000 </r>
       <r>    -3.2644     0.0237     0.0013 </r>
       <r>    -3.2103     0.2459     0.0146 </r>
       <r>    -3.1562     0.7808     0.0568 </r>
       <r>    -3.1021     1.0596     0.1142 </r>
       <r>    -3.0480     1.6374     0.2027 </r>
       <r>    -2.9939     1.7927     0.2997 </r>
       <r>    -2.9399     1.5112     0.3815 </r>
       <r>    -2.8858     2.4734     0.5153 </r>
       <r>    -2.8317     2.4355     0.6470 </r>
       <r>    -2.7776     2.3193     0.7725 </r>
       <r>    -2.7235     2.8391     0.9260 </r>
       <r>    -2.6694     1.9932     1.0339 </r>
       <r>    -2.6153     3.2816     1.2114 </r>
       <r>    -2.5612     3.5541     1.4036 </r>
       <r>    -2.5071     3.4711     1.5914 </r>
       <r>    -2.4530     3.0839     1.7582 </r>
       <r>    -2.3989     2.0537     1.8693 </r>
       <r>    -2.3448     3.7455     2.0719 </r>
       <r>    -2.2907     4.7379     2.3282 </r>
       <r>    -2.2366     3.8009     2.5338 </r>
       <r>    -2.1825     4.5690     2.7809 </r>
       <r>    -2.1285     2.6554     2.9246 </r>
       <r>    -2.0744     3.4597     3.1117 </r>
       <r>    -2.0203     4.9468     3.3793 </r>
       <r>    -1.9662     4.3182     3.6129 </r>
       <r>    -1.9121     4.2697     3.8439 </r>
       <r>    -1.8580     3.7143     4.0448 </r>
       <r>    -1.8039     5.4027     4.3370 </r>
       <r>    -1.7498     5.6632     4.6434 </r>
       <r>    -1.6957     4.2571     4.8736 </r>
       <r>    -1.6416     5.1089     5.1500 </r>
       <r>    -1.5875     3.0272     5.3138 </r>
       <r>    -1.5334     3.5837     5.5076 </r>
       <r>    -1.4793     6.4506     5.8566 </r>
       <r>    -1.4252     5.7628     6.1683 </r>
       <r>    -1.3711     6.7364     6.5327 </r>
       <r>    -1.3171     5.6067     6.8360 </r>
       <r>    -1.2630     4.4294     7.0756 </r>
       <r>    -1.2089     4.7142     7.3306 </r>
       <r>    -1.1548     4.7204     7.5859 </r>
       <r>    -1.1007     6.0621     7.9138 </r>
       <r>    -1.0466     5.2150     8.1959 </r>
       <r>    -0.9925     4.7398     8.4523 </r>
       <r>    -0.9384     7.7980     8.8741 </r>
       <r>    -0.8843     6.4266     9.2218 </r>
       <r>    -0.8302     6.8952     9.5948 </r>
       <r>    -0.7761     4.5527     9.8410 </r>
       <r>    -0.7220     4.3293    10.0752 </r>
       <r>    -0.6679     7.8976    10.5024 </r>
       <r>    -0.6138     7.3201    10.8984 </r>
       <r>    -0.5597     6.5656    11.2535 </r>
       <r>    -0.5057     4.5793    11.5013 </r>
       <r>    -0.4516     4.5798    11.7490 </r>
       <r>    -0.3975     7.2969    12.1437 </r>
       <r>    -0.3434     6.9456    12.5194 </r>
       <r>    -0.2893     7.0598    12.9013 </r>
       <r>    -0.2352     6.7031    13.2639 </r>
       <r>    -0.1811     6.6362    13.6229 </r>
       <r>    -0.1270    10.8990    14.2124 </r>
       <r>    -0.0729     6.9727    14.5896 </r>
       <r>    -0.0188     4.7594    14.8471 </r>
       <r>     0.0353     5.3392    15.1359 </r>
       <r>     0.0894     3.9908    15.3518 </r>
       <r>     0.1435     7.2682    15.7449 </r>
       <r>     0.1976     8.6494    16.2128 </r>
       <r>     0.2517     9.7626    16.7409 </r>
       <r>     0.3058     7.2043    17.1306 </r>
       <r>     0.3598     6.4093    17.4773 </r>
       <r>     0.4139     8.7374    17.9499 </r>
       <r>     0.4680     7.5371    18.3576 </r>
       <r>     0.5221     7.8533    18.7824 </r>
       <r>     0.5762     7.9697    19.2135 </r>
       <r>     0.6303     4.7004    19.4678 </r>
       <r>     0.6844     7.8940    19.8948 </r>
       <r>     0.7385     8.5578    20.3577 </r>
       <r>     0.7926     9.5166    20.8725 </r>
       <r>     0.8467     7.0763    21.2553 </r>
       <r>     0.9008     5.5207    21.5539 </r>
       <r>     0.9549     8.8290    22.0315 </r>
       <r>     1.0090     7.5604    22.4405 </r>
       <r>     1.0631     9.2387    22.9403 </r>
       <r>     1.1172     9.6648    23.4631 </r>
       <r>     1.1712     6.1743    23.7970 </r>
       <r>     1.2253     9.4215    24.3067 </r>
       <r>     1.2794     9.4001    24.8152 </r>
       <r>     1.3335     8.7566    25.2888 </r>
       <r>     1.3876     9.0033    25.7759 </r>
       <r>     1.4417     6.9393    26.1512 </r>
       <r>     1.4958     9.3056    26.6546 </r>
       <r>     1.5499     8.7269    27.1267 </r>
       <r>     1.6040     7.6810    27.5422 </r>
       <r>     1.6581     5.0665    27.8162 </r>
       <r>     1.7122     5.7426    28.1269 </r>
       <r>     1.7663    12.1465    28.7839 </r>
       <r>     1.8204    10.7114    29.3633 </r>
       <r>     1.8745    11.0942    29.9634 </r>
       <r>     1.9286     9.8504    30.4963 </r>
       <r>     1.9826     9.0104    30.9837 </r>
       <r>     2.0367    11.7663    31.6202 </r>
       <r>     2.0908     8.3684    32.0728 </r>
       <r>     2.1449     6.5556    32.4275 </r>
       <r>     2.1990     6.0887    32.7568 </r>
       <r>     2.2531     8.2562    33.2034 </r>
       <r>     2.3072    12.1243    33.8593 </r>
       <r>     2.3613     9.1832    34.3560 </r>
       <r>     2.4154    10.1223    34.9036 </r>
       <r>     2.4695     7.9705    35.3347 </r>
       <r>     2.5236     7.4998    35.7404 </r>
       <r>     2.5777    11.7919    36.3783 </r>
       <r>     2.6318    11.6632    37.0092 </r>
       <r>     2.6859    12.9034    37.7072 </r>
       <r>     2.7400     8.4265    38.1630 </r>
       <r>     2.7940     5.2968    38.4495 </r>
       <r>     2.8481     9.2750    38.9512 </r>
       <r>     2.9022    11.2238    39.5583 </r>
       <r>     2.9563    12.2250    40.2196 </r>
       <r>     3.0104     8.9551    40.7040 </r>
       <r>     3.0645    11.7834    41.3415 </r>
       <r>     3.1186    13.2670    42.0591 </r>
       <r>     3.1727     8.5964    42.5241 </r>
       <r>     3.2268     9.4070    43.0330 </r>
       <r>     3.2809     4.9018    43.2981 </r>
       <r>     3.3350     7.5890    43.7086 </r>
       <r>     3.3891    13.8772    44.4593 </r>
       <r>     3.4432    13.3520    45.1816 </r>
       <r>     3.4973    10.9396    45.7733 </r>
       <r>     3.5514     7.1315    46.1591 </r>
       <r>     3.6054    10.0339    46.7019 </r>
       <r>     3.6595    12.5218    47.3792 </r>
       <r>     3.7136    12.9799    48.0813 </r>
       <r>     3.7677    10.4068    48.6443 </r>
       <r>     3.8218     9.7016    49.1691 </r>
       <r>     3.8759    14.7178    49.9652 </r>
       <r>     3.9300    11.1960    50.5708 </r>
       <r>     3.9841    10.8554    51.1580 </r>
       <r>     4.0382     9.6802    51.6817 </r>
       <r>     4.0923     6.9978    52.0602 </r>
       <r>     4.1464     7.4637    52.4639 </r>
       <r>     4.2005    10.1184    53.0113 </r>
       <r>     4.2546    14.9471    53.8198 </r>
       <r>     4.3087    13.4917    54.5496 </r>
       <r>     4.3628     8.4017    55.0041 </r>
       <r>     4.4168    11.8262    55.6438 </r>
       <r>     4.4709    15.1751    56.4647 </r>
       <r>     4.5250    12.4750    57.1395 </r>
       <r>     4.5791    11.7984    57.7777 </r>
       <r>     4.6332    12.0927    58.4318 </r>
       <r>     4.6873    12.1366    59.0884 </r>
       <r>     4.7414    11.5702    59.7142 </r>
       <r>     4.7955    11.2658    60.3236 </r>
       <r>     4.8496    10.8399    60.9100 </r>
       <r>     4.9037     9.3313    61.4148 </r>
       <r>     4.9578    11.0074    62.0102 </r>
       <r>     5.0119    14.4130    62.7898 </r>
       <r>     5.0660    15.7179    63.6401 </r>
       <r>     5.1201    12.4535    64.3137 </r>
       <r>     5.1742    12.6887    65.0001 </r>
       <r>     5.2282    16.5418    65.8949 </r>
       <r>     5.2823    12.4173    66.5666 </r>
       <r>     5.3364     7.3045    66.9617 </r>
       <r>     5.3905     7.9794    67.3933 </r>
       <r>     5.4446    12.5398    68.0717 </r>
       <r>     5.4987    15.6918    68.9205 </r>
       <r>     5.5528    15.0681    69.7356 </r>
       <r>     5.6069    10.9345    70.3271 </r>
       <r>     5.6610     6.2516    70.6652 </r>
       <r>     5.7151     8.7938    71.1409 </r>
       <r>     5.7692    12.0894    71.7949 </r>
       <r>     5.8233    14.5306    72.5809 </r>
       <r>     5.8774    14.2855    73.3536 </r>
       <r>     5.9315    12.2941    74.0187 </r>
       <r>     5.9856    12.7169    74.7065 </r>
       <r>     6.0396    12.5907    75.3876 </r>
       <r>     6.0937     6.8989    75.7608 </r>
       <r>     6.1478     8.5698    76.2244 </r>
       <r>     6.2019    13.3363    76.9458 </r>
       <r>     6.2560    12.4601    77.6198 </r>
       <r>     6.3101    11.0911    78.2197 </r>
       <r>     6.3642    12.7945    78.9118 </r>
       <r>     6.4183    11.9944    79.5607 </r>
       <r>     6.4724    10.5016    80.1287 </r>
       <r>     6.5265    12.6533    80.8132 </r>
       <r>     6.5806    11.6809    81.4451 </r>
       <r>     6.6347    12.7528    82.1349 </r>
       <r>     6.6888    15.2219    82.9583 </r>
       <r>     6.7429    11.2863    83.5688 </r>
       <r>     6.7970    10.0336    84.1116 </r>
       <r>     6.8510    11.7106    84.7450 </r>
       <r>     6.9051    14.3046    85.5188 </r>
       <r>     6.9592    15.2318    86.3427 </r>
       <r>     7.0133    13.8860    87.0939 </r>
       <r>     7.0674    14.8878    87.8992 </r>
       <r>     7.1215    10.4718    88.4657 </r>
       <r>     7.1756     9.3599    88.9720 </r>
       <r>     7.2297    13.5335    89.7041 </r>
       <r>     7.2838    13.0490    90.4099 </r>
       <r>     7.3379    15.3325    91.2393 </r>
       <r>     7.3920    11.3326    91.8523 </r>
       <r>     7.4461     9.9923    92.3928 </r>
       <r>     7.5002    12.4635    93.0670 </r>
       <r>     7.5543    14.4999    93.8514 </r>
       <r>     7.6084    13.1726    94.5639 </r>
       <r>     7.6624    14.6718    95.3576 </r>
       <r>     7.7165    14.0441    96.1173 </r>
       <r>     7.7706     9.1701    96.6133 </r>
       <r>     7.8247    11.4821    97.2344 </r>
       <r>     7.8788    13.2610    97.9518 </r>
       <r>     7.9329    13.3298    98.6728 </r>
       <r>     7.9870    10.7322    99.2533 </r>
       <r>     8.0411    10.2741    99.8091 </r>
       <r>     8.0952    17.0198   100.7298 </r>
       <r>     8.1493    20.6222   101.8453 </r>
       <r>     8.2034    17.0151   102.7657 </r>
       <r>     8.2575    14.0031   103.5232 </r>
       <r>     8.3116    14.5803   104.3119 </r>
       <r>     8.3657    15.3620   105.1429 </r>
       <r>     8.4198    11.8150   105.7820 </r>
       <r>     8.4738    10.8408   106.3684 </r>
       <r>     8.5279    14.8626   107.1724 </r>
       <r>     8.5820    13.9497   107.9269 </r>
       <r>     8.6361    11.8546   108.5682 </r>
       <r>     8.6902    11.0995   109.1686 </r>
       <r>     8.7443    11.7856   109.8061 </r>
       <r>     8.7984     9.6661   110.3290 </r>
       <r>     8.8525     9.8594   110.8623 </r>
       <r>     8.9066    12.1251   111.5182 </r>
       <r>     8.9607    18.3350   112.5100 </r>
       <r>     9.0148    20.4035   113.6137 </r>
       <r>     9.0689    16.0003   114.4792 </r>
       <r>     9.1230    17.5083   115.4263 </r>
       <r>     9.1771    18.3242   116.4175 </r>
       <r>     9.2312    14.7818   117.2171 </r>
       <r>     9.2852    13.1680   117.9294 </r>
       <r>     9.3393    12.0850   118.5831 </r>
       <r>     9.3934     9.6143   119.1032 </r>
       <r>     9.4475     9.8481   119.6359 </r>
       <r>     9.5016    12.4761   120.3108 </r>
       <r>     9.5557    16.4483   121.2005 </r>
       <r>     9.6098    16.4304   122.0893 </r>
       <r>     9.6639    15.2636   122.9150 </r>
       <r>     9.7180    17.2751   123.8494 </r>
       <r>     9.7721    17.0408   124.7712 </r>
       <r>     9.8262    15.8740   125.6299 </r>
       <r>     9.8803    13.3352   126.3512 </r>
       <r>     9.9344    12.0218   127.0015 </r>
       <r>     9.9885    12.9853   127.7040 </r>
       <r>    10.0426    14.4534   128.4858 </r>
       <r>    10.0966    16.1773   129.3609 </r>
       <r>    10.1507    14.4011   130.1399 </r>
       <r>    10.2048    13.2090   130.8544 </r>
       <r>    10.2589    15.7399   131.7058 </r>
       <r>    10.3130    16.0039   132.5715 </r>
       <r>    10.3671    11.3237   133.1841 </r>
       <r>    10.4212     9.7123   133.7094 </r>
       <r>    10.4753    11.6337   134.3387 </r>
       <r>    10.5294    18.0598   135.3157 </r>
       <r>    10.5835    19.4495   136.3678 </r>
       <r>    10.6376    14.5916   137.1571 </r>
       <r>    10.6917    14.2667   137.9288 </r>
       <r>    10.7458    15.6565   138.7757 </r>
       <r>    10.7999    11.7670   139.4122 </r>
       <r>    10.8540    10.9254   140.0032 </r>
       <r>    10.9080    15.4046   140.8365 </r>
       <r>    10.9621    13.6419   141.5744 </r>
       <r>    11.0162     8.0462   142.0097 </r>
       <r>    11.0703     7.4472   142.4125 </r>
       <r>    11.1244     8.4336   142.8687 </r>
       <r>    11.1785     7.2191   143.2592 </r>
       <r>    11.2326     4.0540   143.4785 </r>
       <r>    11.2867     2.1201   143.5932 </r>
       <r>    11.3408     3.1458   143.7634 </r>
       <r>    11.3949     1.9883   143.8709 </r>
       <r>    11.4490     0.6184   143.9044 </r>
       <r>    11.5031     1.0883   143.9633 </r>
       <r>    11.5572     0.5931   143.9953 </r>
       <r>    11.6113     0.0837   143.9999 </r>
       <r>    11.6654     0.0025   144.0000 </r>
       <r>    11.7194     0.0000   144.0000 </r>
       <r>    11.7735     0.0000   144.0000 </r>
       <r>    11.8276     0.0000   144.0000 </r>
       <r>    11.8817     0.0000   144.0000 </r>
       <r>    11.9358     0.0000   144.0000 </r>
       <r>    11.9899     0.0000   144.0000 </r>
       <r>    12.0440     0.0000   144.0000 </r>
       <r>    12.0981     0.0000   144.0000 </r>
       <r>    12.1522     0.0000   144.0000 </r>
       <r>    12.2063     0.0000   144.0000 </r>
       <r>    12.2604     0.0000   144.0000 </r>
      </set>
     </set>
    </array>
   </total>
  </dos>
 </calculation>
 <structure name="finalpos" >
  <crystal>
   <varray name="basis" >
    <v>       8.15759460       0.00000000       0.00000000 </v>
    <v>       0.00000000       8.15759460       0.00000000 </v>
    <v>       0.00000000       0.00000000       8.15759460 </v>
   </varray>
   <i name="volume">    542.85814291 </i>
   <varray name="rec_basis" >
    <v>       0.12258516       0.00000000       0.00000000 </v>
    <v>       0.00000000       0.12258516       0.00000000 </v>
    <v>       0.00000000       0.00000000       0.12258516 </v>
   </varray>
  </crystal>
  <varray name="positions" >
   <v>       0.00122585       0.00000000       0.00000000 </v>
   <v>       0.50000000       0.00000000       0.00000000 </v>
   <v>       0.00000000       0.50000000       0.00000000 </v>
   <v>       0.50000000       0.50000000       0.00000000 </v>
   <v>       0.00000000       0.00000000       0.50000000 </v>
   <v>       0.50000000       0.00000000       0.50000000 </v>
   <v>       0.00000000       0.50000000       0.50000000 </v>
   <v>       0.50000000       0.50000000       0.50000000 </v>
   <v>       0.00000000       0.25000000       0.25000000 </v>
   <v>       0.50000000       0.25000000       0.25000000 </v>
   <v>       0.00000000       0.75000000       0.25000000 </v>
   <v>       0.50000000       0.75000000       0.25000000 </v>
   <v>       0.00000000       0.25000000       0.75000000 </v>
   <v>       0.50000000       0.25000000       0.75000000 </v>
   <v>       0.00000000       0.75000000       0.75000000 </v>
   <v>       0.50000000       0.75000000       0.75000000 </v>
   <v>       0.25000000       0.00000000       0.25000000 </v>
   <v>       0.75000000       0.00000000       0.25000000 </v>
   <v>       0.25000000       0.50000000       0.25000000 </v>
   <v>       0.75000000       0.50000000       0.25000000 </v>
   <v>       0.25000000       0.00000000       0.75000000 </v>
   <v>       0.75000000       0.00000000       0.75000000 </v>
   <v>       0.25000000       0.50000000       0.75000000 </v>
   <v>       0.75000000       0.50000000       0.75000000 </v>
   <v>       0.25000000       0.25000000       0.00000000 </v>
   <v>       0.75000000       0.25000000       0.00000000 </v>
   <v>       0.25000000       0.75000000       0.00000000 </v>
   <v>       0.75000000       0.75000000       0.00000000 </v>
   <v>       0.25000000       0.25000000       0.50000000 </v>
   <v>       0.75000000       0.25000000       0.50000000 </v>
   <v>       0.25000000       0.75000000       0.50000000 </v>
   <v>       0.75000000       0.75000000       0.50000000 </v>
  </varray>
 </structure>
</modeling>
