<?xml version="1.0" encoding="ISO-8859-1"?>
<modeling>
 <generator>
  <i name="program" type="string">vasp </i>
  <i name="version" type="string">6.3.0  </i>
  <i name="subversion" type="string">20Jan22 (build Feb 10 2022 15:15:41) complex                          parallel </i>
  <i name="platform" type="string">LinuxIFC </i>
  <i name="date" type="string">2023 10 05 </i>
  <i name="time" type="string">11:42:13 </i>
 </generator>
 <incar>
  <i name="EDIFF">      0.00010000</i>
  <i name="ENCUT">    360.00000000</i>
  <i type="int" name="ISMEAR">     0</i>
  <i name="SIGMA">      0.05000000</i>
 </incar>
 <primitive_cell>
  <structure name="primitive_cell" >
   <crystal>
    <varray name="basis" >
     <v>      13.52329754       0.00000000       0.00000000 </v>
     <v>       0.00000000      13.52329754       0.00000000 </v>
     <v>       0.00000000       0.00000000      13.52329754 </v>
    </varray>
    <i name="volume">   2473.13492757 </i>
    <varray name="rec_basis" >
     <v>       0.07394646       0.00000000       0.00000000 </v>
     <v>       0.00000000       0.07394646       0.00000000 </v>
     <v>       0.00000000       0.00000000       0.07394646 </v>
    </varray>
   </crystal>
   <varray name="positions" >
    <v>       0.00073946       0.00000000       0.00000000 </v>
    <v>       0.50000000       0.00000000       0.00000000 </v>
    <v>       0.00000000       0.50000000       0.00000000 </v>
    <v>       0.50000000       0.50000000       0.00000000 </v>
    <v>       0.00000000       0.00000000       0.50000000 </v>
    <v>       0.50000000       0.00000000       0.50000000 </v>
    <v>       0.00000000       0.50000000       0.50000000 </v>
    <v>       0.50000000       0.50000000       0.50000000 </v>
    <v>       0.00000000       0.25000000       0.25000000 </v>
    <v>       0.50000000       0.25000000       0.25000000 </v>
    <v>       0.00000000       0.75000000       0.25000000 </v>
    <v>       0.50000000       0.75000000       0.25000000 </v>
    <v>       0.00000000       0.25000000       0.75000000 </v>
    <v>       0.50000000       0.25000000       0.75000000 </v>
    <v>       0.00000000       0.75000000       0.75000000 </v>
    <v>       0.50000000       0.75000000       0.75000000 </v>
    <v>       0.25000000       0.00000000       0.25000000 </v>
    <v>       0.75000000       0.00000000       0.25000000 </v>
    <v>       0.25000000       0.50000000       0.25000000 </v>
    <v>       0.75000000       0.50000000       0.25000000 </v>
    <v>       0.25000000       0.00000000       0.75000000 </v>
    <v>       0.75000000       0.00000000       0.75000000 </v>
    <v>       0.25000000       0.50000000       0.75000000 </v>
    <v>       0.75000000       0.50000000       0.75000000 </v>
    <v>       0.25000000       0.25000000       0.00000000 </v>
    <v>       0.75000000       0.25000000       0.00000000 </v>
    <v>       0.25000000       0.75000000       0.00000000 </v>
    <v>       0.75000000       0.75000000       0.00000000 </v>
    <v>       0.25000000       0.25000000       0.50000000 </v>
    <v>       0.75000000       0.25000000       0.50000000 </v>
    <v>       0.25000000       0.75000000       0.50000000 </v>
    <v>       0.75000000       0.75000000       0.50000000 </v>
    <v>       0.12500000       0.12500000       0.12500000 </v>
    <v>       0.62500000       0.12500000       0.12500000 </v>
    <v>       0.12500000       0.62500000       0.12500000 </v>
    <v>       0.62500000       0.62500000       0.12500000 </v>
    <v>       0.12500000       0.12500000       0.62500000 </v>
    <v>       0.62500000       0.12500000       0.62500000 </v>
    <v>       0.12500000       0.62500000       0.62500000 </v>
    <v>       0.62500000       0.62500000       0.62500000 </v>
    <v>       0.12500000       0.37500000       0.37500000 </v>
    <v>       0.62500000       0.37500000       0.37500000 </v>
    <v>       0.12500000       0.87500000       0.37500000 </v>
    <v>       0.62500000       0.87500000       0.37500000 </v>
    <v>       0.12500000       0.37500000       0.87500000 </v>
    <v>       0.62500000       0.37500000       0.87500000 </v>
    <v>       0.12500000       0.87500000       0.87500000 </v>
    <v>       0.62500000       0.87500000       0.87500000 </v>
    <v>       0.37500000       0.12500000       0.37500000 </v>
    <v>       0.87500000       0.12500000       0.37500000 </v>
    <v>       0.37500000       0.62500000       0.37500000 </v>
    <v>       0.87500000       0.62500000       0.37500000 </v>
    <v>       0.37500000       0.12500000       0.87500000 </v>
    <v>       0.87500000       0.12500000       0.87500000 </v>
    <v>       0.37500000       0.62500000       0.87500000 </v>
    <v>       0.87500000       0.62500000       0.87500000 </v>
    <v>       0.37500000       0.37500000       0.12500000 </v>
    <v>       0.87500000       0.37500000       0.12500000 </v>
    <v>       0.37500000       0.87500000       0.12500000 </v>
    <v>       0.87500000       0.87500000       0.12500000 </v>
    <v>       0.37500000       0.37500000       0.62500000 </v>
    <v>       0.87500000       0.37500000       0.62500000 </v>
    <v>       0.37500000       0.87500000       0.62500000 </v>
    <v>       0.87500000       0.87500000       0.62500000 </v>
   </varray>
  </structure>
  <varray name="primitive_index" >
   <v type="int" >        1 </v>
   <v type="int" >        2 </v>
   <v type="int" >        3 </v>
   <v type="int" >        4 </v>
   <v type="int" >        5 </v>
   <v type="int" >        6 </v>
   <v type="int" >        7 </v>
   <v type="int" >        8 </v>
   <v type="int" >        9 </v>
   <v type="int" >       10 </v>
   <v type="int" >       11 </v>
   <v type="int" >       12 </v>
   <v type="int" >       13 </v>
   <v type="int" >       14 </v>
   <v type="int" >       15 </v>
   <v type="int" >       16 </v>
   <v type="int" >       17 </v>
   <v type="int" >       18 </v>
   <v type="int" >       19 </v>
   <v type="int" >       20 </v>
   <v type="int" >       21 </v>
   <v type="int" >       22 </v>
   <v type="int" >       23 </v>
   <v type="int" >       24 </v>
   <v type="int" >       25 </v>
   <v type="int" >       26 </v>
   <v type="int" >       27 </v>
   <v type="int" >       28 </v>
   <v type="int" >       29 </v>
   <v type="int" >       30 </v>
   <v type="int" >       31 </v>
   <v type="int" >       32 </v>
   <v type="int" >       33 </v>
   <v type="int" >       34 </v>
   <v type="int" >       35 </v>
   <v type="int" >       36 </v>
   <v type="int" >       37 </v>
   <v type="int" >       38 </v>
   <v type="int" >       39 </v>
   <v type="int" >       40 </v>
   <v type="int" >       41 </v>
   <v type="int" >       42 </v>
   <v type="int" >       43 </v>
   <v type="int" >       44 </v>
   <v type="int" >       45 </v>
   <v type="int" >       46 </v>
   <v type="int" >       47 </v>
   <v type="int" >       48 </v>
   <v type="int" >       49 </v>
   <v type="int" >       50 </v>
   <v type="int" >       51 </v>
   <v type="int" >       52 </v>
   <v type="int" >       53 </v>
   <v type="int" >       54 </v>
   <v type="int" >       55 </v>
   <v type="int" >       56 </v>
   <v type="int" >       57 </v>
   <v type="int" >       58 </v>
   <v type="int" >       59 </v>
   <v type="int" >       60 </v>
   <v type="int" >       61 </v>
   <v type="int" >       62 </v>
   <v type="int" >       63 </v>
   <v type="int" >       64 </v>
  </varray>
 </primitive_cell>
 <kpoints>
  <generation param="Gamma">
   <v type="int" name="divisions">       3        3        3 </v>
   <v name="usershift">      0.00000000       0.00000000       0.00000000 </v>
   <v name="genvec1">      0.33333333       0.00000000       0.00000000 </v>
   <v name="genvec2">      0.00000000       0.33333333       0.00000000 </v>
   <v name="genvec3">      0.00000000       0.00000000       0.33333333 </v>
   <v name="shift">      0.00000000       0.00000000       0.00000000 </v>
  </generation>
  <varray name="kpointlist" >
   <v>       0.00000000       0.00000000       0.00000000 </v>
   <v>       0.33333333       0.00000000       0.00000000 </v>
   <v>       0.00000000       0.33333333       0.00000000 </v>
   <v>       0.33333333       0.33333333       0.00000000 </v>
   <v>       0.00000000       0.33333333       0.33333333 </v>
   <v>       0.00000000      -0.33333333       0.33333333 </v>
   <v>       0.33333333       0.33333333       0.33333333 </v>
   <v>      -0.33333333      -0.33333333       0.33333333 </v>
  </varray>
  <varray name="weights" >
   <v>       0.03703704 </v>
   <v>       0.07407407 </v>
   <v>       0.14814815 </v>
   <v>       0.29629630 </v>
   <v>       0.07407407 </v>
   <v>       0.07407407 </v>
   <v>       0.14814815 </v>
   <v>       0.14814815 </v>
  </varray>
 </kpoints>
 <parameters>
  <separator name="general" >
   <i type="string" name="SYSTEM">unknown system</i>
   <i type="logical" name="LCOMPAT"> F  </i>
  </separator>
  <separator name="electronic" >
   <i type="string" name="PREC">normal</i>
   <i name="ENMAX">    360.00000000</i>
   <i name="ENAUG">    456.10600000</i>
   <i name="EDIFF">      0.00010000</i>
   <i type="int" name="IALGO">    38</i>
   <i type="int" name="IWAVPR">    10</i>
   <i type="int" name="NBANDS">   384</i>
   <i type="int" name="NBANDSLOW">    -1</i>
   <i type="int" name="NBANDSHIGH">    -1</i>
   <i name="NELECT">    576.00000000</i>
   <i type="int" name="TURBO">     0</i>
   <i type="int" name="IRESTART">     0</i>
   <i type="int" name="NREBOOT">     0</i>
   <i type="int" name="NMIN">     0</i>
   <i name="EREF">      0.00000000</i>
   <separator name="electronic smearing" >
    <i type="int" name="ISMEAR">     0</i>
    <i name="SIGMA">      0.05000000</i>
    <i name="KSPACING">      0.50000000</i>
    <i type="logical" name="KGAMMA"> T  </i>
    <i type="logical" name="KBLOWUP"> T  </i>
   </separator>
   <separator name="electronic projectors" >
    <i type="logical" name="LREAL"> F  </i>
    <v name="ROPT">      0.00000000      0.00000000</v>
    <i type="int" name="LMAXPAW">  -100</i>
    <i type="int" name="LMAXMIX">     2</i>
    <i type="logical" name="NLSPLINE"> F  </i>
   </separator>
   <separator name="electronic startup" >
    <i type="int" name="ISTART">     0</i>
    <i type="int" name="ICHARG">     2</i>
    <i type="int" name="INIWAV">     1</i>
   </separator>
   <separator name="electronic spin" >
    <i type="int" name="ISPIN">     1</i>
    <i type="logical" name="LNONCOLLINEAR"> F  </i>
    <v name="MAGMOM">      1.00000000      1.00000000      1.00000000      1.00000000      1.00000000      1.00000000      1.00000000      1.00000000      1.00000000      1.00000000      1.00000000      1.00000000      1.00000000      1.00000000      1.00000000      1.00000000      1.00000000      1.00000000      1.00000000      1.00000000
      1.00000000      1.00000000      1.00000000      1.00000000      1.00000000      1.00000000      1.00000000      1.00000000      1.00000000      1.00000000      1.00000000      1.00000000      1.00000000      1.00000000      1.00000000      1.00000000      1.00000000      1.00000000      1.00000000      1.00000000
      1.00000000      1.00000000      1.00000000      1.00000000      1.00000000      1.00000000      1.00000000      1.00000000      1.00000000      1.00000000      1.00000000      1.00000000      1.00000000      1.00000000      1.00000000      1.00000000      1.00000000      1.00000000      1.00000000      1.00000000
      1.00000000      1.00000000      1.00000000      1.00000000</v>
    <i name="NUPDOWN">     -1.00000000</i>
    <i type="logical" name="LSORBIT"> F  </i>
    <v name="SAXIS">      0.00000000      0.00000000      1.00000000</v>
    <i type="logical" name="LSPIRAL"> F  </i>
    <v name="QSPIRAL">      0.00000000      0.00000000      0.00000000</v>
    <i type="logical" name="LZEROZ"> F  </i>
   </separator>
   <separator name="electronic exchange-correlation" >
    <i type="logical" name="LASPH"> F  </i>
    <i type="logical" name="LMETAGGA"> F  </i>
   </separator>
   <separator name="electronic convergence" >
    <i type="int" name="NELM">    60</i>
    <i type="int" name="NELMDL">    -5</i>
    <i type="int" name="NELMIN">     2</i>
    <i name="ENINI">    360.00000000</i>
    <separator name="electronic convergence detail" >
     <i type="logical" name="LDIAG"> T  </i>
     <i type="logical" name="LSUBROT"> F  </i>
     <i name="WEIMIN">      0.00000000</i>
     <i name="EBREAK">      0.00000007</i>
     <i name="DEPER">      0.30000000</i>
     <i type="int" name="NRMM">     4</i>
     <i name="TIME">      0.40000000</i>
    </separator>
   </separator>
   <separator name="electronic mixer" >
    <i name="AMIX">      0.40000000</i>
    <i name="BMIX">      1.00000000</i>
    <i name="AMIN">      0.10000000</i>
    <i name="AMIX_MAG">      1.60000000</i>
    <i name="BMIX_MAG">      1.00000000</i>
    <separator name="electronic mixer details" >
     <i type="int" name="IMIX">     4</i>
     <i type="logical" name="MIXFIRST"> F  </i>
     <i type="int" name="MAXMIX">   -45</i>
     <i name="WC">    100.00000000</i>
     <i type="int" name="INIMIX">     1</i>
     <i type="int" name="MIXPRE">     1</i>
     <i type="int" name="MREMOVE">     5</i>
    </separator>
   </separator>
   <separator name="electronic dipolcorrection" >
    <i type="logical" name="LDIPOL"> F  </i>
    <i type="logical" name="LMONO"> F  </i>
    <i type="int" name="IDIPOL">     0</i>
    <i name="EPSILON">      1.00000000</i>
    <v name="DIPOL">   -100.00000000   -100.00000000   -100.00000000</v>
    <i name="EFIELD">      0.00000000</i>
   </separator>
  </separator>
  <separator name="grids" >
   <i type="int" name="NGX">    64</i>
   <i type="int" name="NGY">    64</i>
   <i type="int" name="NGZ">    64</i>
   <i type="int" name="NGXF">   128</i>
   <i type="int" name="NGYF">   128</i>
   <i type="int" name="NGZF">   128</i>
   <i type="logical" name="ADDGRID"> F  </i>
  </separator>
  <separator name="ionic" >
   <i type="int" name="NSW">     0</i>
   <i type="int" name="IBRION">    -1</i>
   <i type="int" name="MDALGO">     0</i>
   <i type="int" name="ISIF">     2</i>
   <i name="PSTRESS">      0.00000000</i>
   <i name="EDIFFG">      0.00100000</i>
   <i type="int" name="NFREE">     0</i>
   <i name="POTIM">      0.50000000</i>
   <i name="SMASS">     -3.00000000</i>
   <i name="SCALEE">      1.00000000</i>
  </separator>
  <separator name="ionic md" >
   <i name="TEBEG">      0.00010000</i>
   <i name="TEEND">      0.00010000</i>
   <i type="int" name="NBLOCK">     1</i>
   <i type="int" name="KBLOCK">     1</i>
   <i type="int" name="NPACO">   256</i>
   <i name="APACO">     10.00000000</i>
  </separator>
  <separator name="symmetry" >
   <i type="int" name="ISYM">     2</i>
   <i name="SYMPREC">      0.00001000</i>
  </separator>
  <separator name="dos" >
   <i type="int" name="LORBIT">     0</i>
   <v name="RWIGS">     -1.00000000     -1.00000000</v>
   <i type="int" name="NEDOS">   301</i>
   <i name="EMIN">     10.00000000</i>
   <i name="EMAX">    -10.00000000</i>
   <i name="EFERMI">      0.00000000</i>
  </separator>
  <separator name="writing" >
   <i type="int" name="NWRITE">     2</i>
   <i type="logical" name="LWAVE"> T  </i>
   <i type="logical" name="LDOWNSAMPLE"> F  </i>
   <i type="logical" name="LCHARG"> T  </i>
   <i type="logical" name="LPARD"> F  </i>
   <i type="logical" name="LVTOT"> F  </i>
   <i type="logical" name="LVHAR"> F  </i>
   <i type="logical" name="LELF"> F  </i>
   <i type="logical" name="LOPTICS"> F  </i>
   <v name="STM">      0.00000000      0.00000000      0.00000000      0.00000000      0.00000000      0.00000000      0.00000000</v>
  </separator>
  <separator name="performance" >
   <i type="int" name="NPAR">    48</i>
   <i type="int" name="NSIM">     4</i>
   <i type="int" name="NBLK">    -1</i>
   <i type="logical" name="LPLANE"> T  </i>
   <i type="logical" name="LSCALAPACK"> T  </i>
   <i type="logical" name="LSCAAWARE"> F  </i>
   <i type="logical" name="LSCALU"> F  </i>
   <i type="logical" name="LASYNC"> F  </i>
   <i type="logical" name="LORBITALREAL"> F  </i>
  </separator>
  <separator name="miscellaneous" >
   <i type="int" name="IDIOT">     3</i>
   <i type="int" name="PHON_NSTRUCT">    -1</i>
   <i type="logical" name="LMUSIC"> F  </i>
   <v name="POMASS">    112.41100000    127.60000000</v>
   <v name="DARWINR">      0.00000000      0.00000000</v>
   <v name="DARWINV">      1.00000000      1.00000000</v>
   <i type="logical" name="LCORR"> T  </i>
  </separator>
  <i type="logical" name="GGA_COMPAT"> T  </i>
  <i type="logical" name="LBERRY"> F  </i>
  <i type="int" name="ICORELEVEL">     0</i>
  <i type="logical" name="LDAU"> F  </i>
  <i type="int" name="I_CONSTRAINED_M">     0</i>
  <separator name="electronic exchange-correlation" >
   <i type="string" name="GGA">--</i>
   <i type="int" name="VOSKOWN">     0</i>
   <i type="logical" name="LHFCALC"> F  </i>
   <i type="string" name="PRECFOCK"></i>
   <i type="logical" name="LSYMGRAD"> F  </i>
   <i type="logical" name="LHFONE"> F  </i>
   <i type="logical" name="LRHFCALC"> F  </i>
   <i type="logical" name="LTHOMAS"> F  </i>
   <i type="logical" name="LMODELHF"> F  </i>
   <i type="logical" name="LFOCKACE"> F  </i>
   <i name="ENCUT4O">     -1.00000000</i>
   <i type="int" name="EXXOEP">     0</i>
   <i type="int" name="FOURORBIT">     0</i>
   <i name="AEXX">      0.00000000</i>
   <i name="HFALPHA">      0.00000000</i>
   <i name="MCALPHA">      0.00000000</i>
   <i name="ALDAX">      1.00000000</i>
   <i name="AGGAX">      1.00000000</i>
   <i name="ALDAC">      1.00000000</i>
   <i name="AGGAC">      1.00000000</i>
   <i type="int" name="NKREDX">     1</i>
   <i type="int" name="NKREDY">     1</i>
   <i type="int" name="NKREDZ">     1</i>
   <i type="logical" name="SHIFTRED"> F  </i>
   <i type="logical" name="ODDONLY"> F  </i>
   <i type="logical" name="EVENONLY"> F  </i>
   <i type="int" name="LMAXFOCK">     0</i>
   <i type="int" name="NMAXFOCKAE">     0</i>
   <i type="logical" name="LFOCKAEDFT"> F  </i>
   <i name="HFSCREEN">      0.00000000</i>
   <i name="HFSCREENC">      0.00000000</i>
   <i type="int" name="NBANDSGWLOW">     0</i>
  </separator>
  <separator name="vdW DFT" >
   <i type="logical" name="LUSE_VDW"> F  </i>
   <i name="Zab_VDW">     -0.84910000</i>
   <i name="PARAM1">      0.12340000</i>
   <i name="PARAM2">      1.00000000</i>
   <i name="PARAM3">      0.00000000</i>
  </separator>
  <separator name="model GW" >
   <i type="int" name="MODEL_GW">     0</i>
   <i name="MODEL_EPS0">     23.18563995</i>
   <i name="MODEL_ALPHA">      1.00000000</i>
  </separator>
  <separator name="linear response parameters" >
   <i type="logical" name="LEPSILON"> F  </i>
   <i type="logical" name="LRPA"> F  </i>
   <i type="logical" name="LNABLA"> F  </i>
   <i type="logical" name="LVEL"> F  </i>
   <i name="CSHIFT">      0.10000000</i>
   <i name="OMEGAMAX">     -1.00000000</i>
   <i name="DEG_THRESHOLD">      0.00200000</i>
   <i name="RTIME">     -0.10000000</i>
   <i name="WPLASMAI">      0.00000000</i>
   <v name="DFIELD">      0.00000000      0.00000000      0.00000000</v>
   <v name="WPLASMA">      0.00000000      0.00000000      0.00000000      0.00000000      0.00000000      0.00000000      0.00000000      0.00000000      0.00000000</v>
  </separator>
  <separator name="orbital magnetization" >
   <i type="logical" name="NUCIND"> F  </i>
   <v name="MAGPOS">      0.00000000      0.00000000      0.00000000</v>
   <i type="logical" name="LNICSALL"> T  </i>
   <i type="logical" name="ORBITALMAG"> F  </i>
   <i type="logical" name="LMAGBLOCH"> F  </i>
   <i type="logical" name="LCHIMAG"> F  </i>
   <i type="logical" name="LGAUGE"> T  </i>
   <i type="int" name="MAGATOM">     0</i>
   <v name="MAGDIPOL">      0.00000000      0.00000000      0.00000000</v>
   <v name="AVECCONST">      0.00000000      0.00000000      0.00000000</v>
  </separator>
  <separator name="response functions" >
   <i type="logical" name="LFINITE_TEMPERATURE"> F  </i>
   <i type="logical" name="LADDER"> F  </i>
   <i type="logical" name="LRPAFORCE"> F  </i>
   <i type="logical" name="LFXC"> F  </i>
   <i type="logical" name="LHARTREE"> T  </i>
   <i type="int" name="IBSE">     0</i>
   <v type="int" name="KPOINT">    -1     0     0     0</v>
   <i type="logical" name="LTCTC"> F  </i>
   <i type="logical" name="LTCTE"> F  </i>
   <i type="logical" name="LTETE"> F  </i>
   <i type="logical" name="LTRIPLET"> F  </i>
   <i type="logical" name="LFXCEPS"> F  </i>
   <i type="logical" name="LFXHEG"> F  </i>
   <i type="int" name="NATURALO">     2</i>
   <i type="logical" name="LHOLEGF"> F  </i>
   <i type="logical" name="L2ORDER"> F  </i>
   <i type="logical" name="LDMP1"> F  </i>
   <i type="logical" name="LMP2LT"> F  </i>
   <i type="logical" name="LSMP2LT"> F  </i>
   <i type="logical" name="LGWLF"> F  </i>
   <i name="ENCUTGW">     -2.00000000</i>
   <i name="ENCUTGWSOFT">     -2.00000000</i>
   <i name="ENCUTLF">     -1.00000000</i>
   <i type="logical" name="LESF_SPLINES"> F  </i>
   <i type="int" name="LMAXMP2">    -1</i>
   <i name="SCISSOR">      0.00000000</i>
   <i type="int" name="NOMEGA">     0</i>
   <i type="int" name="NOMEGAR">     0</i>
   <i type="int" name="NBANDSGW">    -1</i>
   <i type="int" name="NBANDSO">    -1</i>
   <i type="int" name="NBANDSV">    -1</i>
   <i type="int" name="NELMGW">     1</i>
   <i type="int" name="NELMHF">     1</i>
   <i type="int" name="DIM">     3</i>
   <i type="int" name="IESPILON">     4</i>
   <i type="int" name="ANTIRES">     0</i>
   <i name="OMEGAMAX">    -30.00000000</i>
   <i name="OMEGAMIN">    -30.00000000</i>
   <i name="OMEGATL">   -200.00000000</i>
   <i type="int" name="OMEGAGRID">     0</i>
   <i name="CSHIFT">     -0.10000000</i>
   <i type="logical" name="LSELFENERGY"> F  </i>
   <i type="logical" name="LSPECTRAL"> F  </i>
   <i type="logical" name="LSPECTRALGW"> F  </i>
   <i type="logical" name="LSINGLES"> F  </i>
   <i type="logical" name="LFERMIGW"> F  </i>
   <i type="logical" name="ODDONLYGW"> F  </i>
   <i type="logical" name="EVENONLYGW"> F  </i>
   <i type="int" name="NKREDLFX">     1</i>
   <i type="int" name="NKREDLFY">     1</i>
   <i type="int" name="NKREDLFZ">     1</i>
   <i type="int" name="MAXMEM">  2800</i>
   <i type="int" name="TELESCOPE">     0</i>
   <i type="int" name="NTAUPAR">    -1</i>
   <i type="int" name="NOMEGAPAR">    -1</i>
   <i name="DAMP_NEWTON">      0.80000001</i>
   <i name="LAMBDA">      1.00000000</i>
  </separator>
  <separator name="External order field" >
   <i name="OFIELD_KAPPA">      0.00000000</i>
   <v name="OFIELD_K">      0.00000000      0.00000000      0.00000000</v>
   <i name="OFIELD_Q6_NEAR">      0.00000000</i>
   <i name="OFIELD_Q6_FAR">      0.00000000</i>
   <i name="OFIELD_A">      0.00000000</i>
  </separator>
  <separator name="optional k-points parameters" >
   <i type="int" name="KPOINTS_OPT_MODE">     1</i>
   <i type="logical" name="LKPOINTS_OPT"> F  </i>
  </separator>
 </parameters>
 <atominfo>
  <atoms>      64 </atoms>
  <types>       2 </types>
  <array name="atoms" >
   <dimension dim="1">ion</dimension>
   <field type="string">element</field>
   <field type="int">atomtype</field>
   <set>
    <rc><c>Cd</c><c>   1</c></rc>
    <rc><c>Cd</c><c>   1</c></rc>
    <rc><c>Cd</c><c>   1</c></rc>
    <rc><c>Cd</c><c>   1</c></rc>
    <rc><c>Cd</c><c>   1</c></rc>
    <rc><c>Cd</c><c>   1</c></rc>
    <rc><c>Cd</c><c>   1</c></rc>
    <rc><c>Cd</c><c>   1</c></rc>
    <rc><c>Cd</c><c>   1</c></rc>
    <rc><c>Cd</c><c>   1</c></rc>
    <rc><c>Cd</c><c>   1</c></rc>
    <rc><c>Cd</c><c>   1</c></rc>
    <rc><c>Cd</c><c>   1</c></rc>
    <rc><c>Cd</c><c>   1</c></rc>
    <rc><c>Cd</c><c>   1</c></rc>
    <rc><c>Cd</c><c>   1</c></rc>
    <rc><c>Cd</c><c>   1</c></rc>
    <rc><c>Cd</c><c>   1</c></rc>
    <rc><c>Cd</c><c>   1</c></rc>
    <rc><c>Cd</c><c>   1</c></rc>
    <rc><c>Cd</c><c>   1</c></rc>
    <rc><c>Cd</c><c>   1</c></rc>
    <rc><c>Cd</c><c>   1</c></rc>
    <rc><c>Cd</c><c>   1</c></rc>
    <rc><c>Cd</c><c>   1</c></rc>
    <rc><c>Cd</c><c>   1</c></rc>
    <rc><c>Cd</c><c>   1</c></rc>
    <rc><c>Cd</c><c>   1</c></rc>
    <rc><c>Cd</c><c>   1</c></rc>
    <rc><c>Cd</c><c>   1</c></rc>
    <rc><c>Cd</c><c>   1</c></rc>
    <rc><c>Cd</c><c>   1</c></rc>
    <rc><c>Te</c><c>   2</c></rc>
    <rc><c>Te</c><c>   2</c></rc>
    <rc><c>Te</c><c>   2</c></rc>
    <rc><c>Te</c><c>   2</c></rc>
    <rc><c>Te</c><c>   2</c></rc>
    <rc><c>Te</c><c>   2</c></rc>
    <rc><c>Te</c><c>   2</c></rc>
    <rc><c>Te</c><c>   2</c></rc>
    <rc><c>Te</c><c>   2</c></rc>
    <rc><c>Te</c><c>   2</c></rc>
    <rc><c>Te</c><c>   2</c></rc>
    <rc><c>Te</c><c>   2</c></rc>
    <rc><c>Te</c><c>   2</c></rc>
    <rc><c>Te</c><c>   2</c></rc>
    <rc><c>Te</c><c>   2</c></rc>
    <rc><c>Te</c><c>   2</c></rc>
    <rc><c>Te</c><c>   2</c></rc>
    <rc><c>Te</c><c>   2</c></rc>
    <rc><c>Te</c><c>   2</c></rc>
    <rc><c>Te</c><c>   2</c></rc>
    <rc><c>Te</c><c>   2</c></rc>
    <rc><c>Te</c><c>   2</c></rc>
    <rc><c>Te</c><c>   2</c></rc>
    <rc><c>Te</c><c>   2</c></rc>
    <rc><c>Te</c><c>   2</c></rc>
    <rc><c>Te</c><c>   2</c></rc>
    <rc><c>Te</c><c>   2</c></rc>
    <rc><c>Te</c><c>   2</c></rc>
    <rc><c>Te</c><c>   2</c></rc>
    <rc><c>Te</c><c>   2</c></rc>
    <rc><c>Te</c><c>   2</c></rc>
    <rc><c>Te</c><c>   2</c></rc>
   </set>
  </array>
  <array name="atomtypes" >
   <dimension dim="1">type</dimension>
   <field type="int">atomspertype</field>
   <field type="string">element</field>
   <field>mass</field>
   <field>valence</field>
   <field type="string">pseudopotential</field>
   <set>
    <rc><c>  32</c><c>Cd</c><c>    112.41100000</c><c>     12.00000000</c><c>  PAW_PBE Cd 06Sep2000                  </c></rc>
    <rc><c>  32</c><c>Te</c><c>    127.60000000</c><c>      6.00000000</c><c>  PAW_PBE Te 08Apr2002                  </c></rc>
   </set>
  </array>
 </atominfo>
 <structure name="initialpos" >
  <crystal>
   <varray name="basis" >
    <v>      13.52329754       0.00000000       0.00000000 </v>
    <v>       0.00000000      13.52329754       0.00000000 </v>
    <v>       0.00000000       0.00000000      13.52329754 </v>
   </varray>
   <i name="volume">   2473.13492757 </i>
   <varray name="rec_basis" >
    <v>       0.07394646       0.00000000       0.00000000 </v>
    <v>       0.00000000       0.07394646       0.00000000 </v>
    <v>       0.00000000       0.00000000       0.07394646 </v>
   </varray>
  </crystal>
  <varray name="positions" >
   <v>       0.00073946       0.00000000       0.00000000 </v>
   <v>       0.50000000       0.00000000       0.00000000 </v>
   <v>       0.00000000       0.50000000       0.00000000 </v>
   <v>       0.50000000       0.50000000       0.00000000 </v>
   <v>       0.00000000       0.00000000       0.50000000 </v>
   <v>       0.50000000       0.00000000       0.50000000 </v>
   <v>       0.00000000       0.50000000       0.50000000 </v>
   <v>       0.50000000       0.50000000       0.50000000 </v>
   <v>       0.00000000       0.25000000       0.25000000 </v>
   <v>       0.50000000       0.25000000       0.25000000 </v>
   <v>       0.00000000       0.75000000       0.25000000 </v>
   <v>       0.50000000       0.75000000       0.25000000 </v>
   <v>       0.00000000       0.25000000       0.75000000 </v>
   <v>       0.50000000       0.25000000       0.75000000 </v>
   <v>       0.00000000       0.75000000       0.75000000 </v>
   <v>       0.50000000       0.75000000       0.75000000 </v>
   <v>       0.25000000       0.00000000       0.25000000 </v>
   <v>       0.75000000       0.00000000       0.25000000 </v>
   <v>       0.25000000       0.50000000       0.25000000 </v>
   <v>       0.75000000       0.50000000       0.25000000 </v>
   <v>       0.25000000       0.00000000       0.75000000 </v>
   <v>       0.75000000       0.00000000       0.75000000 </v>
   <v>       0.25000000       0.50000000       0.75000000 </v>
   <v>       0.75000000       0.50000000       0.75000000 </v>
   <v>       0.25000000       0.25000000       0.00000000 </v>
   <v>       0.75000000       0.25000000       0.00000000 </v>
   <v>       0.25000000       0.75000000       0.00000000 </v>
   <v>       0.75000000       0.75000000       0.00000000 </v>
   <v>       0.25000000       0.25000000       0.50000000 </v>
   <v>       0.75000000       0.25000000       0.50000000 </v>
   <v>       0.25000000       0.75000000       0.50000000 </v>
   <v>       0.75000000       0.75000000       0.50000000 </v>
   <v>       0.12500000       0.12500000       0.12500000 </v>
   <v>       0.62500000       0.12500000       0.12500000 </v>
   <v>       0.12500000       0.62500000       0.12500000 </v>
   <v>       0.62500000       0.62500000       0.12500000 </v>
   <v>       0.12500000       0.12500000       0.62500000 </v>
   <v>       0.62500000       0.12500000       0.62500000 </v>
   <v>       0.12500000       0.62500000       0.62500000 </v>
   <v>       0.62500000       0.62500000       0.62500000 </v>
   <v>       0.12500000       0.37500000       0.37500000 </v>
   <v>       0.62500000       0.37500000       0.37500000 </v>
   <v>       0.12500000       0.87500000       0.37500000 </v>
   <v>       0.62500000       0.87500000       0.37500000 </v>
   <v>       0.12500000       0.37500000       0.87500000 </v>
   <v>       0.62500000       0.37500000       0.87500000 </v>
   <v>       0.12500000       0.87500000       0.87500000 </v>
   <v>       0.62500000       0.87500000       0.87500000 </v>
   <v>       0.37500000       0.12500000       0.37500000 </v>
   <v>       0.87500000       0.12500000       0.37500000 </v>
   <v>       0.37500000       0.62500000       0.37500000 </v>
   <v>       0.87500000       0.62500000       0.37500000 </v>
   <v>       0.37500000       0.12500000       0.87500000 </v>
   <v>       0.87500000       0.12500000       0.87500000 </v>
   <v>       0.37500000       0.62500000       0.87500000 </v>
   <v>       0.87500000       0.62500000       0.87500000 </v>
   <v>       0.37500000       0.37500000       0.12500000 </v>
   <v>       0.87500000       0.37500000       0.12500000 </v>
   <v>       0.37500000       0.87500000       0.12500000 </v>
   <v>       0.87500000       0.87500000       0.12500000 </v>
   <v>       0.37500000       0.37500000       0.62500000 </v>
   <v>       0.87500000       0.37500000       0.62500000 </v>
   <v>       0.37500000       0.87500000       0.62500000 </v>
   <v>       0.87500000       0.87500000       0.62500000 </v>
  </varray>
 </structure>
 <calculation>
  <scstep>
   <time name="dav">   35.47   35.81</time>
   <time name="total">   35.82   36.19</time>
   <energy>
    <i name="alphaZ">   1414.89185941 </i>
    <i name="ewald"> -32055.27157014 </i>
    <i name="hartreedc"> -17099.14921047 </i>
    <i name="XCdc">   -738.33921206 </i>
    <i name="pawpsdc">  44941.76741987 </i>
    <i name="pawaedc"> -42629.27134123 </i>
    <i name="eentropy">     -0.02846922 </i>
    <i name="bandstr">    633.34536397 </i>
    <i name="atom">  48525.04422734 </i>
    <i name="e_fr_energy">   2992.98906745 </i>
    <i name="e_wo_entrp">   2993.01753668 </i>
    <i name="e_0_energy">   2993.00330207 </i>
   </energy>
  </scstep>
  <scstep>
   <time name="dav">   39.01   39.34</time>
   <time name="total">   39.01   39.34</time>
   <energy>
    <i name="e_fr_energy">     11.36552698 </i>
    <i name="e_wo_entrp">     11.36552698 </i>
    <i name="e_0_energy">     11.36552698 </i>
   </energy>
  </scstep>
  <scstep>
   <time name="dav">   40.96   41.30</time>
   <time name="total">   40.96   41.30</time>
   <energy>
    <i name="e_fr_energy">   -158.06553869 </i>
    <i name="e_wo_entrp">   -158.06553869 </i>
    <i name="e_0_energy">   -158.06553869 </i>
   </energy>
  </scstep>
  <scstep>
   <time name="dav">   40.78   41.11</time>
   <time name="total">   40.78   41.11</time>
   <energy>
    <i name="e_fr_energy">   -160.83792246 </i>
    <i name="e_wo_entrp">   -160.83792246 </i>
    <i name="e_0_energy">   -160.83792246 </i>
   </energy>
  </scstep>
  <scstep>
   <time name="dav">   39.62   39.93</time>
   <time name="total">   39.87   40.20</time>
   <energy>
    <i name="e_fr_energy">   -160.87644252 </i>
    <i name="e_wo_entrp">   -160.87644252 </i>
    <i name="e_0_energy">   -160.87644252 </i>
   </energy>
  </scstep>
  <scstep>
   <time name="dav">   38.14   38.42</time>
   <time name="total">   38.44   38.77</time>
   <energy>
    <i name="e_fr_energy">   -153.39514159 </i>
    <i name="e_wo_entrp">   -153.39514159 </i>
    <i name="e_0_energy">   -153.39514159 </i>
   </energy>
  </scstep>
  <scstep>
   <time name="dav">   37.88   38.16</time>
   <time name="total">   38.15   38.46</time>
   <energy>
    <i name="e_fr_energy">   -152.97865058 </i>
    <i name="e_wo_entrp">   -152.97865057 </i>
    <i name="e_0_energy">   -152.97865058 </i>
   </energy>
  </scstep>
  <scstep>
   <time name="dav">   38.54   38.82</time>
   <time name="total">   38.82   39.12</time>
   <energy>
    <i name="e_fr_energy">   -152.99243014 </i>
    <i name="e_wo_entrp">   -152.99243014 </i>
    <i name="e_0_energy">   -152.99243014 </i>
   </energy>
  </scstep>
  <scstep>
   <time name="dav">   39.18   39.47</time>
   <time name="total">   39.45   39.78</time>
   <energy>
    <i name="e_fr_energy">   -153.00189273 </i>
    <i name="e_wo_entrp">   -153.00189272 </i>
    <i name="e_0_energy">   -153.00189272 </i>
   </energy>
  </scstep>
  <scstep>
   <time name="dav">   38.54   38.83</time>
   <time name="total">   38.82   39.21</time>
   <energy>
    <i name="e_fr_energy">   -153.00007580 </i>
    <i name="e_wo_entrp">   -153.00007580 </i>
    <i name="e_0_energy">   -153.00007580 </i>
   </energy>
  </scstep>
  <scstep>
   <time name="dav">   38.75   39.03</time>
   <time name="total">   39.02   39.33</time>
   <energy>
    <i name="e_fr_energy">   -153.00138416 </i>
    <i name="e_wo_entrp">   -153.00138416 </i>
    <i name="e_0_energy">   -153.00138416 </i>
   </energy>
  </scstep>
  <scstep>
   <time name="dav">   37.06   37.35</time>
   <time name="total">   37.09   37.40</time>
   <energy>
    <i name="alphaZ">   1414.89185941 </i>
    <i name="ewald"> -32055.27157014 </i>
    <i name="hartreedc"> -16892.90644171 </i>
    <i name="XCdc">   -736.17472442 </i>
    <i name="pawpsdc">  52713.15807191 </i>
    <i name="pawaedc"> -50373.70876477 </i>
    <i name="eentropy">     -0.00000000 </i>
    <i name="bandstr">  -2748.03412613 </i>
    <i name="atom">  48525.04422734 </i>
    <i name="e_fr_energy">   -153.00146849 </i>
    <i name="e_wo_entrp">   -153.00146849 </i>
    <i name="e_0_energy">   -153.00146849 </i>
   </energy>
  </scstep>
  <structure>
   <crystal>
    <varray name="basis" >
     <v>      13.52329754       0.00000000       0.00000000 </v>
     <v>       0.00000000      13.52329754       0.00000000 </v>
     <v>       0.00000000       0.00000000      13.52329754 </v>
    </varray>
    <i name="volume">   2473.13492757 </i>
    <varray name="rec_basis" >
     <v>       0.07394646       0.00000000       0.00000000 </v>
     <v>       0.00000000       0.07394646       0.00000000 </v>
     <v>       0.00000000       0.00000000       0.07394646 </v>
    </varray>
   </crystal>
   <varray name="positions" >
    <v>       0.00073946       0.00000000       0.00000000 </v>
    <v>       0.50000000       0.00000000       0.00000000 </v>
    <v>       0.00000000       0.50000000       0.00000000 </v>
    <v>       0.50000000       0.50000000       0.00000000 </v>
    <v>       0.00000000       0.00000000       0.50000000 </v>
    <v>       0.50000000       0.00000000       0.50000000 </v>
    <v>       0.00000000       0.50000000       0.50000000 </v>
    <v>       0.50000000       0.50000000       0.50000000 </v>
    <v>       0.00000000       0.25000000       0.25000000 </v>
    <v>       0.50000000       0.25000000       0.25000000 </v>
    <v>       0.00000000       0.75000000       0.25000000 </v>
    <v>       0.50000000       0.75000000       0.25000000 </v>
    <v>       0.00000000       0.25000000       0.75000000 </v>
    <v>       0.50000000       0.25000000       0.75000000 </v>
    <v>       0.00000000       0.75000000       0.75000000 </v>
    <v>       0.50000000       0.75000000       0.75000000 </v>
    <v>       0.25000000       0.00000000       0.25000000 </v>
    <v>       0.75000000       0.00000000       0.25000000 </v>
    <v>       0.25000000       0.50000000       0.25000000 </v>
    <v>       0.75000000       0.50000000       0.25000000 </v>
    <v>       0.25000000       0.00000000       0.75000000 </v>
    <v>       0.75000000       0.00000000       0.75000000 </v>
    <v>       0.25000000       0.50000000       0.75000000 </v>
    <v>       0.75000000       0.50000000       0.75000000 </v>
    <v>       0.25000000       0.25000000       0.00000000 </v>
    <v>       0.75000000       0.25000000       0.00000000 </v>
    <v>       0.25000000       0.75000000       0.00000000 </v>
    <v>       0.75000000       0.75000000       0.00000000 </v>
    <v>       0.25000000       0.25000000       0.50000000 </v>
    <v>       0.75000000       0.25000000       0.50000000 </v>
    <v>       0.25000000       0.75000000       0.50000000 </v>
    <v>       0.75000000       0.75000000       0.50000000 </v>
    <v>       0.12500000       0.12500000       0.12500000 </v>
    <v>       0.62500000       0.12500000       0.12500000 </v>
    <v>       0.12500000       0.62500000       0.12500000 </v>
    <v>       0.62500000       0.62500000       0.12500000 </v>
    <v>       0.12500000       0.12500000       0.62500000 </v>
    <v>       0.62500000       0.12500000       0.62500000 </v>
    <v>       0.12500000       0.62500000       0.62500000 </v>
    <v>       0.62500000       0.62500000       0.62500000 </v>
    <v>       0.12500000       0.37500000       0.37500000 </v>
    <v>       0.62500000       0.37500000       0.37500000 </v>
    <v>       0.12500000       0.87500000       0.37500000 </v>
    <v>       0.62500000       0.87500000       0.37500000 </v>
    <v>       0.12500000       0.37500000       0.87500000 </v>
    <v>       0.62500000       0.37500000       0.87500000 </v>
    <v>       0.12500000       0.87500000       0.87500000 </v>
    <v>       0.62500000       0.87500000       0.87500000 </v>
    <v>       0.37500000       0.12500000       0.37500000 </v>
    <v>       0.87500000       0.12500000       0.37500000 </v>
    <v>       0.37500000       0.62500000       0.37500000 </v>
    <v>       0.87500000       0.62500000       0.37500000 </v>
    <v>       0.37500000       0.12500000       0.87500000 </v>
    <v>       0.87500000       0.12500000       0.87500000 </v>
    <v>       0.37500000       0.62500000       0.87500000 </v>
    <v>       0.87500000       0.62500000       0.87500000 </v>
    <v>       0.37500000       0.37500000       0.12500000 </v>
    <v>       0.87500000       0.37500000       0.12500000 </v>
    <v>       0.37500000       0.87500000       0.12500000 </v>
    <v>       0.87500000       0.87500000       0.12500000 </v>
    <v>       0.37500000       0.37500000       0.62500000 </v>
    <v>       0.87500000       0.37500000       0.62500000 </v>
    <v>       0.37500000       0.87500000       0.62500000 </v>
    <v>       0.87500000       0.87500000       0.62500000 </v>
   </varray>
  </structure>
  <varray name="forces" >
   <v>      -0.03441974       0.00000000      -0.00000000 </v>
   <v>       0.00082479       0.00000000      -0.00000000 </v>
   <v>      -0.00007269      -0.00000000      -0.00000000 </v>
   <v>       0.00056853       0.00000000      -0.00000000 </v>
   <v>      -0.00007269       0.00000000      -0.00000000 </v>
   <v>       0.00056853      -0.00000000      -0.00000000 </v>
   <v>      -0.00163308      -0.00000000      -0.00000000 </v>
   <v>       0.00027776       0.00000000      -0.00000000 </v>
   <v>      -0.00274478       0.00133866       0.00133866 </v>
   <v>       0.00050370      -0.00022527      -0.00022527 </v>
   <v>      -0.00273741       0.00133495      -0.00133495 </v>
   <v>       0.00050696      -0.00022522       0.00022522 </v>
   <v>      -0.00273741      -0.00133495       0.00133495 </v>
   <v>       0.00050696       0.00022522      -0.00022522 </v>
   <v>      -0.00274478      -0.00133866      -0.00133866 </v>
   <v>       0.00050370       0.00022527       0.00022527 </v>
   <v>       0.00134390      -0.00133325       0.00141172 </v>
   <v>       0.00133992      -0.00133926      -0.00140938 </v>
   <v>       0.00018403       0.00022467      -0.00023216 </v>
   <v>       0.00018218       0.00022498       0.00023183 </v>
   <v>       0.00134390       0.00133325      -0.00141172 </v>
   <v>       0.00133992       0.00133926       0.00140938 </v>
   <v>       0.00018403      -0.00022467       0.00023216 </v>
   <v>       0.00018218      -0.00022498      -0.00023183 </v>
   <v>       0.00134390       0.00141172      -0.00133325 </v>
   <v>       0.00133992      -0.00140938      -0.00133926 </v>
   <v>       0.00134390      -0.00141172       0.00133325 </v>
   <v>       0.00133992       0.00140938       0.00133926 </v>
   <v>       0.00018403      -0.00023216       0.00022467 </v>
   <v>       0.00018218       0.00023183       0.00022498 </v>
   <v>       0.00018403       0.00023216      -0.00022467 </v>
   <v>       0.00018218      -0.00023183      -0.00022498 </v>
   <v>       0.00839160       0.00619757       0.00619757 </v>
   <v>      -0.00057857       0.00027943       0.00027943 </v>
   <v>       0.00040721      -0.00001464      -0.00017715 </v>
   <v>      -0.00053891      -0.00041519      -0.00008764 </v>
   <v>       0.00040721      -0.00017715      -0.00001464 </v>
   <v>      -0.00053891      -0.00008764      -0.00041519 </v>
   <v>       0.00035462       0.00060727       0.00060727 </v>
   <v>      -0.00016893       0.00004781       0.00004781 </v>
   <v>       0.00035462      -0.00060727      -0.00060727 </v>
   <v>      -0.00016893      -0.00004781      -0.00004781 </v>
   <v>       0.00040721       0.00017715       0.00001464 </v>
   <v>      -0.00053891       0.00008764       0.00041519 </v>
   <v>       0.00040721       0.00001464       0.00017715 </v>
   <v>      -0.00053891       0.00041519       0.00008764 </v>
   <v>       0.00839160      -0.00619757      -0.00619757 </v>
   <v>      -0.00057857      -0.00027943      -0.00027943 </v>
   <v>      -0.00053783       0.00008805      -0.00041404 </v>
   <v>       0.00040821       0.00017710      -0.00001578 </v>
   <v>      -0.00017004      -0.00004811       0.00004811 </v>
   <v>       0.00035385      -0.00060573       0.00060573 </v>
   <v>      -0.00058063      -0.00027954       0.00027954 </v>
   <v>       0.00827151      -0.00600877       0.00600877 </v>
   <v>      -0.00053783       0.00041404      -0.00008805 </v>
   <v>       0.00040821       0.00001578      -0.00017710 </v>
   <v>      -0.00053783      -0.00041404       0.00008805 </v>
   <v>       0.00040821      -0.00001578       0.00017710 </v>
   <v>      -0.00058063       0.00027954      -0.00027954 </v>
   <v>       0.00827151       0.00600877      -0.00600877 </v>
   <v>      -0.00017004       0.00004811      -0.00004811 </v>
   <v>       0.00035385       0.00060573      -0.00060573 </v>
   <v>      -0.00053783      -0.00008805       0.00041404 </v>
   <v>       0.00040821      -0.00017710       0.00001578 </v>
  </varray>
  <varray name="stress" >
   <v>     -21.63864383       0.00000000       0.00000000 </v>
   <v>      -0.00000000     -21.63842856       0.01890706 </v>
   <v>       0.00000000       0.01890706     -21.63842856 </v>
  </varray>
  <energy>
   <i name="e_fr_energy">   -153.00146849 </i>
   <i name="e_wo_entrp">   -153.00146849 </i>
   <i name="e_0_energy">   -153.00146849 </i>
  </energy>
  <time name="totalsc">  535.69  541.11</time>
  <eigenvalues>
   <array>
    <dimension dim="1">band</dimension>
    <dimension dim="2">kpoint</dimension>
    <dimension dim="3">spin</dimension>
    <field>eigene</field>
    <field>occ</field>
    <set>
     <set comment="spin 1">
      <set comment="kpoint 1">
       <r>   -9.2498    1.0000 </r>
       <r>   -9.0585    1.0000 </r>
       <r>   -9.0579    1.0000 </r>
       <r>   -9.0569    1.0000 </r>
       <r>   -9.0569    1.0000 </r>
       <r>   -9.0560    1.0000 </r>
       <r>   -9.0555    1.0000 </r>
       <r>   -8.9661    1.0000 </r>
       <r>   -8.9659    1.0000 </r>
       <r>   -8.9629    1.0000 </r>
       <r>   -8.9629    1.0000 </r>
       <r>   -8.9629    1.0000 </r>
       <r>   -8.9629    1.0000 </r>
       <r>   -8.9629    1.0000 </r>
       <r>   -8.9629    1.0000 </r>
       <r>   -8.9627    1.0000 </r>
       <r>   -8.9627    1.0000 </r>
       <r>   -8.9617    1.0000 </r>
       <r>   -8.9617    1.0000 </r>
       <r>   -8.9612    1.0000 </r>
       <r>   -8.9612    1.0000 </r>
       <r>   -8.9588    1.0000 </r>
       <r>   -8.9585    1.0000 </r>
       <r>   -8.8761    1.0000 </r>
       <r>   -8.8739    1.0000 </r>
       <r>   -8.8739    1.0000 </r>
       <r>   -8.8738    1.0000 </r>
       <r>   -8.8737    1.0000 </r>
       <r>   -8.8732    1.0000 </r>
       <r>   -8.8728    1.0000 </r>
       <r>   -8.8727    1.0000 </r>
       <r>   -8.8706    1.0000 </r>
       <r>   -6.6385    1.0000 </r>
       <r>   -6.6384    1.0000 </r>
       <r>   -6.6383    1.0000 </r>
       <r>   -6.5950    1.0000 </r>
       <r>   -6.5948    1.0000 </r>
       <r>   -6.5948    1.0000 </r>
       <r>   -6.5948    1.0000 </r>
       <r>   -6.5948    1.0000 </r>
       <r>   -6.5948    1.0000 </r>
       <r>   -6.5947    1.0000 </r>
       <r>   -6.5946    1.0000 </r>
       <r>   -6.5862    1.0000 </r>
       <r>   -6.5860    1.0000 </r>
       <r>   -6.5858    1.0000 </r>
       <r>   -6.5858    1.0000 </r>
       <r>   -6.5857    1.0000 </r>
       <r>   -6.5857    1.0000 </r>
       <r>   -6.5856    1.0000 </r>
       <r>   -6.5856    1.0000 </r>
       <r>   -6.5855    1.0000 </r>
       <r>   -6.5854    1.0000 </r>
       <r>   -6.5853    1.0000 </r>
       <r>   -6.5852    1.0000 </r>
       <r>   -6.5843    1.0000 </r>
       <r>   -6.5843    1.0000 </r>
       <r>   -6.5841    1.0000 </r>
       <r>   -6.5841    1.0000 </r>
       <r>   -6.5840    1.0000 </r>
       <r>   -6.5839    1.0000 </r>
       <r>   -6.5839    1.0000 </r>
       <r>   -6.5839    1.0000 </r>
       <r>   -6.5838    1.0000 </r>
       <r>   -6.5836    1.0000 </r>
       <r>   -6.5836    1.0000 </r>
       <r>   -6.5835    1.0000 </r>
       <r>   -6.5817    1.0000 </r>
       <r>   -6.5816    1.0000 </r>
       <r>   -6.5815    1.0000 </r>
       <r>   -6.5815    1.0000 </r>
       <r>   -6.5815    1.0000 </r>
       <r>   -6.5814    1.0000 </r>
       <r>   -6.5814    1.0000 </r>
       <r>   -6.5812    1.0000 </r>
       <r>   -6.5812    1.0000 </r>
       <r>   -6.5812    1.0000 </r>
       <r>   -6.5810    1.0000 </r>
       <r>   -6.5810    1.0000 </r>
       <r>   -6.5571    1.0000 </r>
       <r>   -6.5569    1.0000 </r>
       <r>   -6.5569    1.0000 </r>
       <r>   -6.5569    1.0000 </r>
       <r>   -6.5569    1.0000 </r>
       <r>   -6.5566    1.0000 </r>
       <r>   -6.5475    1.0000 </r>
       <r>   -6.5474    1.0000 </r>
       <r>   -6.5473    1.0000 </r>
       <r>   -6.5473    1.0000 </r>
       <r>   -6.5473    1.0000 </r>
       <r>   -6.5472    1.0000 </r>
       <r>   -6.5283    1.0000 </r>
       <r>   -6.5282    1.0000 </r>
       <r>   -6.5282    1.0000 </r>
       <r>   -6.5282    1.0000 </r>
       <r>   -6.5282    1.0000 </r>
       <r>   -6.5281    1.0000 </r>
       <r>   -6.5202    1.0000 </r>
       <r>   -6.5201    1.0000 </r>
       <r>   -6.5201    1.0000 </r>
       <r>   -6.5104    1.0000 </r>
       <r>   -6.5103    1.0000 </r>
       <r>   -6.5102    1.0000 </r>
       <r>   -6.5102    1.0000 </r>
       <r>   -6.5101    1.0000 </r>
       <r>   -6.5100    1.0000 </r>
       <r>   -6.4793    1.0000 </r>
       <r>   -6.4793    1.0000 </r>
       <r>   -6.4791    1.0000 </r>
       <r>   -6.4791    1.0000 </r>
       <r>   -6.4789    1.0000 </r>
       <r>   -6.4789    1.0000 </r>
       <r>   -6.4644    1.0000 </r>
       <r>   -6.4642    1.0000 </r>
       <r>   -6.4642    1.0000 </r>
       <r>   -6.4640    1.0000 </r>
       <r>   -6.4639    1.0000 </r>
       <r>   -6.4639    1.0000 </r>
       <r>   -6.4639    1.0000 </r>
       <r>   -6.4639    1.0000 </r>
       <r>   -6.4639    1.0000 </r>
       <r>   -6.4638    1.0000 </r>
       <r>   -6.4638    1.0000 </r>
       <r>   -6.4638    1.0000 </r>
       <r>   -6.4625    1.0000 </r>
       <r>   -6.4625    1.0000 </r>
       <r>   -6.4625    1.0000 </r>
       <r>   -6.4625    1.0000 </r>
       <r>   -6.4624    1.0000 </r>
       <r>   -6.4624    1.0000 </r>
       <r>   -6.4624    1.0000 </r>
       <r>   -6.4624    1.0000 </r>
       <r>   -6.4623    1.0000 </r>
       <r>   -6.4621    1.0000 </r>
       <r>   -6.4621    1.0000 </r>
       <r>   -6.4620    1.0000 </r>
       <r>   -6.4604    1.0000 </r>
       <r>   -6.4604    1.0000 </r>
       <r>   -6.4572    1.0000 </r>
       <r>   -6.4572    1.0000 </r>
       <r>   -6.4571    1.0000 </r>
       <r>   -6.4571    1.0000 </r>
       <r>   -6.4570    1.0000 </r>
       <r>   -6.4569    1.0000 </r>
       <r>   -6.4532    1.0000 </r>
       <r>   -6.4532    1.0000 </r>
       <r>   -6.4532    1.0000 </r>
       <r>   -6.4532    1.0000 </r>
       <r>   -6.4532    1.0000 </r>
       <r>   -6.4531    1.0000 </r>
       <r>   -6.4531    1.0000 </r>
       <r>   -6.4531    1.0000 </r>
       <r>   -6.4493    1.0000 </r>
       <r>   -6.4492    1.0000 </r>
       <r>   -6.4491    1.0000 </r>
       <r>   -6.4490    1.0000 </r>
       <r>   -6.4489    1.0000 </r>
       <r>   -6.4488    1.0000 </r>
       <r>   -6.4385    1.0000 </r>
       <r>   -6.4385    1.0000 </r>
       <r>   -6.4385    1.0000 </r>
       <r>   -6.4253    1.0000 </r>
       <r>   -6.4252    1.0000 </r>
       <r>   -6.4251    1.0000 </r>
       <r>   -6.4251    1.0000 </r>
       <r>   -6.4250    1.0000 </r>
       <r>   -6.4249    1.0000 </r>
       <r>   -6.2418    1.0000 </r>
       <r>   -6.2417    1.0000 </r>
       <r>   -6.2417    1.0000 </r>
       <r>   -6.2417    1.0000 </r>
       <r>   -6.2416    1.0000 </r>
       <r>   -6.2416    1.0000 </r>
       <r>   -6.2416    1.0000 </r>
       <r>   -6.2415    1.0000 </r>
       <r>   -6.2414    1.0000 </r>
       <r>   -6.2414    1.0000 </r>
       <r>   -6.2414    1.0000 </r>
       <r>   -6.2413    1.0000 </r>
       <r>   -6.2008    1.0000 </r>
       <r>   -6.2008    1.0000 </r>
       <r>   -6.2006    1.0000 </r>
       <r>   -6.2006    1.0000 </r>
       <r>   -6.1013    1.0000 </r>
       <r>   -6.1012    1.0000 </r>
       <r>   -6.1011    1.0000 </r>
       <r>   -6.0519    1.0000 </r>
       <r>   -6.0519    1.0000 </r>
       <r>   -6.0518    1.0000 </r>
       <r>   -6.0518    1.0000 </r>
       <r>   -6.0518    1.0000 </r>
       <r>   -6.0517    1.0000 </r>
       <r>   -2.4822    1.0000 </r>
       <r>   -2.4815    1.0000 </r>
       <r>   -2.4811    1.0000 </r>
       <r>   -2.4805    1.0000 </r>
       <r>   -2.4552    1.0000 </r>
       <r>   -2.4552    1.0000 </r>
       <r>   -2.4552    1.0000 </r>
       <r>   -2.3441    1.0000 </r>
       <r>   -2.3440    1.0000 </r>
       <r>   -2.3437    1.0000 </r>
       <r>   -2.3437    1.0000 </r>
       <r>   -2.3434    1.0000 </r>
       <r>   -2.3433    1.0000 </r>
       <r>   -1.9694    1.0000 </r>
       <r>   -1.9684    1.0000 </r>
       <r>   -1.9683    1.0000 </r>
       <r>   -1.9682    1.0000 </r>
       <r>   -1.9678    1.0000 </r>
       <r>   -1.9677    1.0000 </r>
       <r>   -1.9676    1.0000 </r>
       <r>   -1.9676    1.0000 </r>
       <r>   -1.9671    1.0000 </r>
       <r>   -1.9671    1.0000 </r>
       <r>   -1.9670    1.0000 </r>
       <r>   -1.9660    1.0000 </r>
       <r>   -1.1576    1.0000 </r>
       <r>   -1.1575    1.0000 </r>
       <r>   -1.1572    1.0000 </r>
       <r>   -1.1572    1.0000 </r>
       <r>   -1.1569    1.0000 </r>
       <r>   -1.1569    1.0000 </r>
       <r>   -0.5811    1.0000 </r>
       <r>   -0.5808    1.0000 </r>
       <r>   -0.5802    1.0000 </r>
       <r>   -0.5802    1.0000 </r>
       <r>   -0.5797    1.0000 </r>
       <r>   -0.5794    1.0000 </r>
       <r>   -0.4329    1.0000 </r>
       <r>   -0.4327    1.0000 </r>
       <r>   -0.4325    1.0000 </r>
       <r>   -0.4325    1.0000 </r>
       <r>   -0.4324    1.0000 </r>
       <r>   -0.4322    1.0000 </r>
       <r>   -0.4250    1.0000 </r>
       <r>   -0.4249    1.0000 </r>
       <r>   -0.4243    1.0000 </r>
       <r>   -0.4239    1.0000 </r>
       <r>   -0.4239    1.0000 </r>
       <r>   -0.4239    1.0000 </r>
       <r>   -0.4237    1.0000 </r>
       <r>   -0.4237    1.0000 </r>
       <r>   -0.4236    1.0000 </r>
       <r>   -0.4232    1.0000 </r>
       <r>   -0.4226    1.0000 </r>
       <r>   -0.4225    1.0000 </r>
       <r>   -0.1914    1.0000 </r>
       <r>   -0.1910    1.0000 </r>
       <r>   -0.1909    1.0000 </r>
       <r>   -0.1909    1.0000 </r>
       <r>   -0.1908    1.0000 </r>
       <r>   -0.1903    1.0000 </r>
       <r>    0.4347    1.0000 </r>
       <r>    0.4355    1.0000 </r>
       <r>    0.4358    1.0000 </r>
       <r>    0.4363    1.0000 </r>
       <r>    0.4363    1.0000 </r>
       <r>    0.4363    1.0000 </r>
       <r>    0.4363    1.0000 </r>
       <r>    0.4363    1.0000 </r>
       <r>    0.4364    1.0000 </r>
       <r>    0.4369    1.0000 </r>
       <r>    0.4371    1.0000 </r>
       <r>    0.4379    1.0000 </r>
       <r>    0.6502    1.0000 </r>
       <r>    0.6512    1.0000 </r>
       <r>    0.6515    1.0000 </r>
       <r>    0.6515    1.0000 </r>
       <r>    0.6519    1.0000 </r>
       <r>    0.6519    1.0000 </r>
       <r>    0.6519    1.0000 </r>
       <r>    0.6520    1.0000 </r>
       <r>    0.6524    1.0000 </r>
       <r>    0.6524    1.0000 </r>
       <r>    0.6526    1.0000 </r>
       <r>    0.6535    1.0000 </r>
       <r>    0.6739    1.0000 </r>
       <r>    0.6745    1.0000 </r>
       <r>    0.6746    1.0000 </r>
       <r>    0.6747    1.0000 </r>
       <r>    0.6751    1.0000 </r>
       <r>    0.6752    1.0000 </r>
       <r>    0.6754    1.0000 </r>
       <r>    0.6761    1.0000 </r>
       <r>    1.2803    1.0000 </r>
       <r>    1.2805    1.0000 </r>
       <r>    1.2808    1.0000 </r>
       <r>    1.6751    0.0000 </r>
       <r>    2.9599    0.0000 </r>
       <r>    2.9602    0.0000 </r>
       <r>    2.9605    0.0000 </r>
       <r>    2.9608    0.0000 </r>
       <r>    3.9191    0.0000 </r>
       <r>    3.9191    0.0000 </r>
       <r>    3.9191    0.0000 </r>
       <r>    3.9268    0.0000 </r>
       <r>    3.9269    0.0000 </r>
       <r>    3.9271    0.0000 </r>
       <r>    3.9271    0.0000 </r>
       <r>    3.9273    0.0000 </r>
       <r>    3.9274    0.0000 </r>
       <r>    4.1261    0.0000 </r>
       <r>    4.1261    0.0000 </r>
       <r>    4.1264    0.0000 </r>
       <r>    4.1265    0.0000 </r>
       <r>    4.1268    0.0000 </r>
       <r>    4.1269    0.0000 </r>
       <r>    4.1270    0.0000 </r>
       <r>    4.1270    0.0000 </r>
       <r>    4.1274    0.0000 </r>
       <r>    4.1275    0.0000 </r>
       <r>    4.1278    0.0000 </r>
       <r>    4.1278    0.0000 </r>
       <r>    4.1396    0.0000 </r>
       <r>    4.1406    0.0000 </r>
       <r>    4.1415    0.0000 </r>
       <r>    4.7295    0.0000 </r>
       <r>    4.7299    0.0000 </r>
       <r>    4.7303    0.0000 </r>
       <r>    4.7303    0.0000 </r>
       <r>    4.7307    0.0000 </r>
       <r>    4.7310    0.0000 </r>
       <r>    5.0749    0.0000 </r>
       <r>    5.0749    0.0000 </r>
       <r>    5.0753    0.0000 </r>
       <r>    5.0753    0.0000 </r>
       <r>    5.0756    0.0000 </r>
       <r>    5.0757    0.0000 </r>
       <r>    5.9418    0.0000 </r>
       <r>    5.9420    0.0000 </r>
       <r>    5.9422    0.0000 </r>
       <r>    5.9806    0.0000 </r>
       <r>    5.9817    0.0000 </r>
       <r>    5.9820    0.0000 </r>
       <r>    5.9820    0.0000 </r>
       <r>    5.9822    0.0000 </r>
       <r>    5.9834    0.0000 </r>
       <r>    6.4482    0.0000 </r>
       <r>    6.4482    0.0000 </r>
       <r>    6.4489    0.0000 </r>
       <r>    6.4489    0.0000 </r>
       <r>    6.4490    0.0000 </r>
       <r>    6.4491    0.0000 </r>
       <r>    6.4492    0.0000 </r>
       <r>    6.4493    0.0000 </r>
       <r>    6.4494    0.0000 </r>
       <r>    6.4494    0.0000 </r>
       <r>    6.4500    0.0000 </r>
       <r>    6.4501    0.0000 </r>
       <r>    6.4914    0.0000 </r>
       <r>    6.4914    0.0000 </r>
       <r>    6.4924    0.0000 </r>
       <r>    6.4925    0.0000 </r>
       <r>    6.4926    0.0000 </r>
       <r>    6.4926    0.0000 </r>
       <r>    6.4937    0.0000 </r>
       <r>    6.4937    0.0000 </r>
       <r>    6.6703    0.0000 </r>
       <r>    6.6710    0.0000 </r>
       <r>    6.6711    0.0000 </r>
       <r>    6.6711    0.0000 </r>
       <r>    6.6711    0.0000 </r>
       <r>    6.6718    0.0000 </r>
       <r>    6.7268    0.0000 </r>
       <r>    6.7274    0.0000 </r>
       <r>    6.7274    0.0000 </r>
       <r>    6.7282    0.0000 </r>
       <r>    6.7283    0.0000 </r>
       <r>    6.7283    0.0000 </r>
       <r>    6.7284    0.0000 </r>
       <r>    6.7284    0.0000 </r>
       <r>    6.7285    0.0000 </r>
       <r>    6.7293    0.0000 </r>
       <r>    6.7293    0.0000 </r>
       <r>    6.7300    0.0000 </r>
       <r>    7.0288    0.0000 </r>
       <r>    7.0297    0.0000 </r>
       <r>    7.0297    0.0000 </r>
       <r>    7.0299    0.0000 </r>
       <r>    7.0301    0.0000 </r>
       <r>    7.0302    0.0000 </r>
       <r>    7.0303    0.0000 </r>
       <r>    7.0312    0.0000 </r>
      </set>
      <set comment="kpoint 2">
       <r>   -9.2238    1.0000 </r>
       <r>   -9.1528    1.0000 </r>
       <r>   -9.0450    1.0000 </r>
       <r>   -9.0442    1.0000 </r>
       <r>   -9.0440    1.0000 </r>
       <r>   -9.0432    1.0000 </r>
       <r>   -9.0102    1.0000 </r>
       <r>   -9.0094    1.0000 </r>
       <r>   -9.0093    1.0000 </r>
       <r>   -9.0084    1.0000 </r>
       <r>   -8.9648    1.0000 </r>
       <r>   -8.9640    1.0000 </r>
       <r>   -8.9628    1.0000 </r>
       <r>   -8.9624    1.0000 </r>
       <r>   -8.9623    1.0000 </r>
       <r>   -8.9615    1.0000 </r>
       <r>   -8.9615    1.0000 </r>
       <r>   -8.9600    1.0000 </r>
       <r>   -8.9596    1.0000 </r>
       <r>   -8.9186    1.0000 </r>
       <r>   -8.9176    1.0000 </r>
       <r>   -8.9176    1.0000 </r>
       <r>   -8.9167    1.0000 </r>
       <r>   -8.8965    1.0000 </r>
       <r>   -8.8864    1.0000 </r>
       <r>   -8.8854    1.0000 </r>
       <r>   -8.8852    1.0000 </r>
       <r>   -8.8845    1.0000 </r>
       <r>   -8.8750    1.0000 </r>
       <r>   -8.8736    1.0000 </r>
       <r>   -8.8729    1.0000 </r>
       <r>   -8.8711    1.0000 </r>
       <r>   -6.6315    1.0000 </r>
       <r>   -6.6313    1.0000 </r>
       <r>   -6.6199    1.0000 </r>
       <r>   -6.6123    1.0000 </r>
       <r>   -6.6121    1.0000 </r>
       <r>   -6.5941    1.0000 </r>
       <r>   -6.5940    1.0000 </r>
       <r>   -6.5939    1.0000 </r>
       <r>   -6.5937    1.0000 </r>
       <r>   -6.5925    1.0000 </r>
       <r>   -6.5924    1.0000 </r>
       <r>   -6.5923    1.0000 </r>
       <r>   -6.5921    1.0000 </r>
       <r>   -6.5920    1.0000 </r>
       <r>   -6.5919    1.0000 </r>
       <r>   -6.5919    1.0000 </r>
       <r>   -6.5917    1.0000 </r>
       <r>   -6.5916    1.0000 </r>
       <r>   -6.5916    1.0000 </r>
       <r>   -6.5915    1.0000 </r>
       <r>   -6.5913    1.0000 </r>
       <r>   -6.5871    1.0000 </r>
       <r>   -6.5869    1.0000 </r>
       <r>   -6.5867    1.0000 </r>
       <r>   -6.5867    1.0000 </r>
       <r>   -6.5866    1.0000 </r>
       <r>   -6.5864    1.0000 </r>
       <r>   -6.5863    1.0000 </r>
       <r>   -6.5863    1.0000 </r>
       <r>   -6.5857    1.0000 </r>
       <r>   -6.5856    1.0000 </r>
       <r>   -6.5855    1.0000 </r>
       <r>   -6.5853    1.0000 </r>
       <r>   -6.5852    1.0000 </r>
       <r>   -6.5851    1.0000 </r>
       <r>   -6.5850    1.0000 </r>
       <r>   -6.5850    1.0000 </r>
       <r>   -6.5733    1.0000 </r>
       <r>   -6.5731    1.0000 </r>
       <r>   -6.5731    1.0000 </r>
       <r>   -6.5729    1.0000 </r>
       <r>   -6.5664    1.0000 </r>
       <r>   -6.5662    1.0000 </r>
       <r>   -6.5662    1.0000 </r>
       <r>   -6.5660    1.0000 </r>
       <r>   -6.5649    1.0000 </r>
       <r>   -6.5626    1.0000 </r>
       <r>   -6.5624    1.0000 </r>
       <r>   -6.5624    1.0000 </r>
       <r>   -6.5621    1.0000 </r>
       <r>   -6.5580    1.0000 </r>
       <r>   -6.5578    1.0000 </r>
       <r>   -6.5518    1.0000 </r>
       <r>   -6.5516    1.0000 </r>
       <r>   -6.5516    1.0000 </r>
       <r>   -6.5514    1.0000 </r>
       <r>   -6.5499    1.0000 </r>
       <r>   -6.5498    1.0000 </r>
       <r>   -6.5446    1.0000 </r>
       <r>   -6.5446    1.0000 </r>
       <r>   -6.5374    1.0000 </r>
       <r>   -6.5373    1.0000 </r>
       <r>   -6.5364    1.0000 </r>
       <r>   -6.5362    1.0000 </r>
       <r>   -6.5359    1.0000 </r>
       <r>   -6.5359    1.0000 </r>
       <r>   -6.5174    1.0000 </r>
       <r>   -6.5103    1.0000 </r>
       <r>   -6.5073    1.0000 </r>
       <r>   -6.5073    1.0000 </r>
       <r>   -6.4954    1.0000 </r>
       <r>   -6.4953    1.0000 </r>
       <r>   -6.4953    1.0000 </r>
       <r>   -6.4952    1.0000 </r>
       <r>   -6.4895    1.0000 </r>
       <r>   -6.4895    1.0000 </r>
       <r>   -6.4772    1.0000 </r>
       <r>   -6.4770    1.0000 </r>
       <r>   -6.4769    1.0000 </r>
       <r>   -6.4768    1.0000 </r>
       <r>   -6.4756    1.0000 </r>
       <r>   -6.4755    1.0000 </r>
       <r>   -6.4755    1.0000 </r>
       <r>   -6.4753    1.0000 </r>
       <r>   -6.4714    1.0000 </r>
       <r>   -6.4712    1.0000 </r>
       <r>   -6.4712    1.0000 </r>
       <r>   -6.4709    1.0000 </r>
       <r>   -6.4643    1.0000 </r>
       <r>   -6.4621    1.0000 </r>
       <r>   -6.4611    1.0000 </r>
       <r>   -6.4611    1.0000 </r>
       <r>   -6.4610    1.0000 </r>
       <r>   -6.4610    1.0000 </r>
       <r>   -6.4597    1.0000 </r>
       <r>   -6.4597    1.0000 </r>
       <r>   -6.4596    1.0000 </r>
       <r>   -6.4595    1.0000 </r>
       <r>   -6.4590    1.0000 </r>
       <r>   -6.4580    1.0000 </r>
       <r>   -6.4578    1.0000 </r>
       <r>   -6.4578    1.0000 </r>
       <r>   -6.4576    1.0000 </r>
       <r>   -6.4568    1.0000 </r>
       <r>   -6.4566    1.0000 </r>
       <r>   -6.4565    1.0000 </r>
       <r>   -6.4565    1.0000 </r>
       <r>   -6.4557    1.0000 </r>
       <r>   -6.4556    1.0000 </r>
       <r>   -6.4555    1.0000 </r>
       <r>   -6.4555    1.0000 </r>
       <r>   -6.4553    1.0000 </r>
       <r>   -6.4553    1.0000 </r>
       <r>   -6.4553    1.0000 </r>
       <r>   -6.4552    1.0000 </r>
       <r>   -6.4551    1.0000 </r>
       <r>   -6.4551    1.0000 </r>
       <r>   -6.4550    1.0000 </r>
       <r>   -6.4549    1.0000 </r>
       <r>   -6.4544    1.0000 </r>
       <r>   -6.4506    1.0000 </r>
       <r>   -6.4505    1.0000 </r>
       <r>   -6.4504    1.0000 </r>
       <r>   -6.4501    1.0000 </r>
       <r>   -6.4495    1.0000 </r>
       <r>   -6.4495    1.0000 </r>
       <r>   -6.4440    1.0000 </r>
       <r>   -6.4415    1.0000 </r>
       <r>   -6.4415    1.0000 </r>
       <r>   -6.4399    1.0000 </r>
       <r>   -6.4041    1.0000 </r>
       <r>   -6.4041    1.0000 </r>
       <r>   -6.4041    1.0000 </r>
       <r>   -6.4040    1.0000 </r>
       <r>   -6.3372    1.0000 </r>
       <r>   -6.3372    1.0000 </r>
       <r>   -6.3372    1.0000 </r>
       <r>   -6.3372    1.0000 </r>
       <r>   -6.2959    1.0000 </r>
       <r>   -6.2317    1.0000 </r>
       <r>   -6.2317    1.0000 </r>
       <r>   -6.2315    1.0000 </r>
       <r>   -6.2315    1.0000 </r>
       <r>   -6.2113    1.0000 </r>
       <r>   -6.2113    1.0000 </r>
       <r>   -6.2111    1.0000 </r>
       <r>   -6.2110    1.0000 </r>
       <r>   -6.1608    1.0000 </r>
       <r>   -6.1457    1.0000 </r>
       <r>   -6.1456    1.0000 </r>
       <r>   -6.1456    1.0000 </r>
       <r>   -6.1456    1.0000 </r>
       <r>   -6.0885    1.0000 </r>
       <r>   -6.0883    1.0000 </r>
       <r>   -6.0765    1.0000 </r>
       <r>   -6.0764    1.0000 </r>
       <r>   -6.0764    1.0000 </r>
       <r>   -6.0763    1.0000 </r>
       <r>   -6.0635    1.0000 </r>
       <r>   -6.0633    1.0000 </r>
       <r>   -2.4299    1.0000 </r>
       <r>   -2.4299    1.0000 </r>
       <r>   -2.3810    1.0000 </r>
       <r>   -2.3801    1.0000 </r>
       <r>   -2.3798    1.0000 </r>
       <r>   -2.3792    1.0000 </r>
       <r>   -2.3743    1.0000 </r>
       <r>   -2.3741    1.0000 </r>
       <r>   -2.3105    1.0000 </r>
       <r>   -2.3102    1.0000 </r>
       <r>   -2.3102    1.0000 </r>
       <r>   -2.3099    1.0000 </r>
       <r>   -2.2840    1.0000 </r>
       <r>   -2.1931    1.0000 </r>
       <r>   -2.1928    1.0000 </r>
       <r>   -2.1928    1.0000 </r>
       <r>   -2.1925    1.0000 </r>
       <r>   -2.1335    1.0000 </r>
       <r>   -2.1327    1.0000 </r>
       <r>   -2.1323    1.0000 </r>
       <r>   -2.1315    1.0000 </r>
       <r>   -1.8202    1.0000 </r>
       <r>   -1.6496    1.0000 </r>
       <r>   -1.6493    1.0000 </r>
       <r>   -1.6493    1.0000 </r>
       <r>   -1.6490    1.0000 </r>
       <r>   -1.3184    1.0000 </r>
       <r>   -1.3181    1.0000 </r>
       <r>   -1.3181    1.0000 </r>
       <r>   -1.3178    1.0000 </r>
       <r>   -0.7028    1.0000 </r>
       <r>   -0.7025    1.0000 </r>
       <r>   -0.7024    1.0000 </r>
       <r>   -0.7021    1.0000 </r>
       <r>   -0.6586    1.0000 </r>
       <r>   -0.6583    1.0000 </r>
       <r>   -0.6583    1.0000 </r>
       <r>   -0.6580    1.0000 </r>
       <r>   -0.4864    1.0000 </r>
       <r>   -0.4863    1.0000 </r>
       <r>   -0.3767    1.0000 </r>
       <r>   -0.3759    1.0000 </r>
       <r>   -0.3660    1.0000 </r>
       <r>   -0.2927    1.0000 </r>
       <r>   -0.2926    1.0000 </r>
       <r>   -0.2563    1.0000 </r>
       <r>   -0.2554    1.0000 </r>
       <r>   -0.1468    1.0000 </r>
       <r>   -0.1467    1.0000 </r>
       <r>   -0.1465    1.0000 </r>
       <r>   -0.1465    1.0000 </r>
       <r>   -0.1196    1.0000 </r>
       <r>   -0.1192    1.0000 </r>
       <r>   -0.1192    1.0000 </r>
       <r>   -0.1188    1.0000 </r>
       <r>   -0.1144    1.0000 </r>
       <r>   -0.1141    1.0000 </r>
       <r>   -0.0711    1.0000 </r>
       <r>   -0.0707    1.0000 </r>
       <r>   -0.0707    1.0000 </r>
       <r>   -0.0704    1.0000 </r>
       <r>    0.1053    1.0000 </r>
       <r>    0.1056    1.0000 </r>
       <r>    0.2787    1.0000 </r>
       <r>    0.2791    1.0000 </r>
       <r>    0.2791    1.0000 </r>
       <r>    0.2795    1.0000 </r>
       <r>    0.3241    1.0000 </r>
       <r>    0.3247    1.0000 </r>
       <r>    0.3247    1.0000 </r>
       <r>    0.3252    1.0000 </r>
       <r>    0.3821    1.0000 </r>
       <r>    0.3821    1.0000 </r>
       <r>    0.3825    1.0000 </r>
       <r>    0.3826    1.0000 </r>
       <r>    0.5092    1.0000 </r>
       <r>    0.5496    1.0000 </r>
       <r>    0.5502    1.0000 </r>
       <r>    0.5502    1.0000 </r>
       <r>    0.5507    1.0000 </r>
       <r>    0.6565    1.0000 </r>
       <r>    0.6572    1.0000 </r>
       <r>    0.6580    1.0000 </r>
       <r>    0.6585    1.0000 </r>
       <r>    0.6683    1.0000 </r>
       <r>    0.6688    1.0000 </r>
       <r>    0.6696    1.0000 </r>
       <r>    0.6702    1.0000 </r>
       <r>    0.7064    1.0000 </r>
       <r>    0.7070    1.0000 </r>
       <r>    0.7070    1.0000 </r>
       <r>    0.7076    1.0000 </r>
       <r>    0.8172    1.0000 </r>
       <r>    0.8176    1.0000 </r>
       <r>    1.1451    1.0000 </r>
       <r>    1.1455    1.0000 </r>
       <r>    2.4696    0.0000 </r>
       <r>    3.2739    0.0000 </r>
       <r>    3.2743    0.0000 </r>
       <r>    3.2744    0.0000 </r>
       <r>    3.2748    0.0000 </r>
       <r>    3.3539    0.0000 </r>
       <r>    3.8424    0.0000 </r>
       <r>    3.8428    0.0000 </r>
       <r>    3.8431    0.0000 </r>
       <r>    3.8435    0.0000 </r>
       <r>    3.9328    0.0000 </r>
       <r>    3.9721    0.0000 </r>
       <r>    3.9722    0.0000 </r>
       <r>    3.9723    0.0000 </r>
       <r>    3.9724    0.0000 </r>
       <r>    4.0038    0.0000 </r>
       <r>    4.0274    0.0000 </r>
       <r>    4.0275    0.0000 </r>
       <r>    4.0275    0.0000 </r>
       <r>    4.0276    0.0000 </r>
       <r>    4.1608    0.0000 </r>
       <r>    4.1608    0.0000 </r>
       <r>    4.2567    0.0000 </r>
       <r>    4.4153    0.0000 </r>
       <r>    4.4154    0.0000 </r>
       <r>    4.4154    0.0000 </r>
       <r>    4.4154    0.0000 </r>
       <r>    4.4188    0.0000 </r>
       <r>    4.4205    0.0000 </r>
       <r>    4.4829    0.0000 </r>
       <r>    4.7179    0.0000 </r>
       <r>    4.7179    0.0000 </r>
       <r>    4.8365    0.0000 </r>
       <r>    4.8367    0.0000 </r>
       <r>    4.8367    0.0000 </r>
       <r>    4.8368    0.0000 </r>
       <r>    5.0062    0.0000 </r>
       <r>    5.0069    0.0000 </r>
       <r>    5.0069    0.0000 </r>
       <r>    5.0075    0.0000 </r>
       <r>    5.1409    0.0000 </r>
       <r>    5.1674    0.0000 </r>
       <r>    5.1689    0.0000 </r>
       <r>    5.6555    0.0000 </r>
       <r>    5.7639    0.0000 </r>
       <r>    5.7645    0.0000 </r>
       <r>    5.7645    0.0000 </r>
       <r>    5.7650    0.0000 </r>
       <r>    6.0907    0.0000 </r>
       <r>    6.0910    0.0000 </r>
       <r>    6.0911    0.0000 </r>
       <r>    6.0913    0.0000 </r>
       <r>    6.1577    0.0000 </r>
       <r>    6.1581    0.0000 </r>
       <r>    6.2765    0.0000 </r>
       <r>    6.2768    0.0000 </r>
       <r>    6.2774    0.0000 </r>
       <r>    6.2777    0.0000 </r>
       <r>    6.2979    0.0000 </r>
       <r>    6.2982    0.0000 </r>
       <r>    6.2982    0.0000 </r>
       <r>    6.2985    0.0000 </r>
       <r>    6.3718    0.0000 </r>
       <r>    6.3725    0.0000 </r>
       <r>    6.3730    0.0000 </r>
       <r>    6.3737    0.0000 </r>
       <r>    6.5924    0.0000 </r>
       <r>    6.5926    0.0000 </r>
       <r>    6.5926    0.0000 </r>
       <r>    6.5926    0.0000 </r>
       <r>    6.5990    0.0000 </r>
       <r>    6.5998    0.0000 </r>
       <r>    6.6001    0.0000 </r>
       <r>    6.6009    0.0000 </r>
       <r>    6.6259    0.0000 </r>
       <r>    6.6261    0.0000 </r>
       <r>    6.6262    0.0000 </r>
       <r>    6.6264    0.0000 </r>
       <r>    6.6267    0.0000 </r>
       <r>    6.6269    0.0000 </r>
       <r>    6.6270    0.0000 </r>
       <r>    6.6272    0.0000 </r>
       <r>    6.7284    0.0000 </r>
       <r>    6.7288    0.0000 </r>
       <r>    6.8596    0.0000 </r>
       <r>    6.8605    0.0000 </r>
       <r>    6.8607    0.0000 </r>
       <r>    6.8616    0.0000 </r>
       <r>    7.0323    0.0000 </r>
       <r>    7.0328    0.0000 </r>
       <r>    7.0328    0.0000 </r>
       <r>    7.0333    0.0000 </r>
       <r>    7.2266    0.0000 </r>
       <r>    7.2269    0.0000 </r>
       <r>    7.2286    0.0000 </r>
       <r>    7.2468    0.0000 </r>
      </set>
      <set comment="kpoint 3">
       <r>   -9.2238    1.0000 </r>
       <r>   -9.1528    1.0000 </r>
       <r>   -9.0454    1.0000 </r>
       <r>   -9.0441    1.0000 </r>
       <r>   -9.0440    1.0000 </r>
       <r>   -9.0429    1.0000 </r>
       <r>   -9.0105    1.0000 </r>
       <r>   -9.0093    1.0000 </r>
       <r>   -9.0093    1.0000 </r>
       <r>   -9.0081    1.0000 </r>
       <r>   -8.9645    1.0000 </r>
       <r>   -8.9637    1.0000 </r>
       <r>   -8.9627    1.0000 </r>
       <r>   -8.9620    1.0000 </r>
       <r>   -8.9620    1.0000 </r>
       <r>   -8.9619    1.0000 </r>
       <r>   -8.9618    1.0000 </r>
       <r>   -8.9603    1.0000 </r>
       <r>   -8.9601    1.0000 </r>
       <r>   -8.9188    1.0000 </r>
       <r>   -8.9176    1.0000 </r>
       <r>   -8.9176    1.0000 </r>
       <r>   -8.9165    1.0000 </r>
       <r>   -8.8967    1.0000 </r>
       <r>   -8.8865    1.0000 </r>
       <r>   -8.8854    1.0000 </r>
       <r>   -8.8853    1.0000 </r>
       <r>   -8.8843    1.0000 </r>
       <r>   -8.8734    1.0000 </r>
       <r>   -8.8733    1.0000 </r>
       <r>   -8.8730    1.0000 </r>
       <r>   -8.8727    1.0000 </r>
       <r>   -6.6314    1.0000 </r>
       <r>   -6.6314    1.0000 </r>
       <r>   -6.6199    1.0000 </r>
       <r>   -6.6122    1.0000 </r>
       <r>   -6.6122    1.0000 </r>
       <r>   -6.5943    1.0000 </r>
       <r>   -6.5940    1.0000 </r>
       <r>   -6.5939    1.0000 </r>
       <r>   -6.5938    1.0000 </r>
       <r>   -6.5924    1.0000 </r>
       <r>   -6.5923    1.0000 </r>
       <r>   -6.5923    1.0000 </r>
       <r>   -6.5922    1.0000 </r>
       <r>   -6.5921    1.0000 </r>
       <r>   -6.5919    1.0000 </r>
       <r>   -6.5919    1.0000 </r>
       <r>   -6.5917    1.0000 </r>
       <r>   -6.5916    1.0000 </r>
       <r>   -6.5915    1.0000 </r>
       <r>   -6.5914    1.0000 </r>
       <r>   -6.5911    1.0000 </r>
       <r>   -6.5871    1.0000 </r>
       <r>   -6.5870    1.0000 </r>
       <r>   -6.5869    1.0000 </r>
       <r>   -6.5868    1.0000 </r>
       <r>   -6.5863    1.0000 </r>
       <r>   -6.5861    1.0000 </r>
       <r>   -6.5861    1.0000 </r>
       <r>   -6.5860    1.0000 </r>
       <r>   -6.5859    1.0000 </r>
       <r>   -6.5857    1.0000 </r>
       <r>   -6.5857    1.0000 </r>
       <r>   -6.5856    1.0000 </r>
       <r>   -6.5851    1.0000 </r>
       <r>   -6.5851    1.0000 </r>
       <r>   -6.5850    1.0000 </r>
       <r>   -6.5849    1.0000 </r>
       <r>   -6.5732    1.0000 </r>
       <r>   -6.5731    1.0000 </r>
       <r>   -6.5731    1.0000 </r>
       <r>   -6.5730    1.0000 </r>
       <r>   -6.5663    1.0000 </r>
       <r>   -6.5662    1.0000 </r>
       <r>   -6.5662    1.0000 </r>
       <r>   -6.5661    1.0000 </r>
       <r>   -6.5649    1.0000 </r>
       <r>   -6.5624    1.0000 </r>
       <r>   -6.5624    1.0000 </r>
       <r>   -6.5624    1.0000 </r>
       <r>   -6.5623    1.0000 </r>
       <r>   -6.5579    1.0000 </r>
       <r>   -6.5579    1.0000 </r>
       <r>   -6.5517    1.0000 </r>
       <r>   -6.5516    1.0000 </r>
       <r>   -6.5516    1.0000 </r>
       <r>   -6.5515    1.0000 </r>
       <r>   -6.5498    1.0000 </r>
       <r>   -6.5498    1.0000 </r>
       <r>   -6.5446    1.0000 </r>
       <r>   -6.5446    1.0000 </r>
       <r>   -6.5374    1.0000 </r>
       <r>   -6.5373    1.0000 </r>
       <r>   -6.5363    1.0000 </r>
       <r>   -6.5363    1.0000 </r>
       <r>   -6.5359    1.0000 </r>
       <r>   -6.5359    1.0000 </r>
       <r>   -6.5174    1.0000 </r>
       <r>   -6.5103    1.0000 </r>
       <r>   -6.5073    1.0000 </r>
       <r>   -6.5073    1.0000 </r>
       <r>   -6.4954    1.0000 </r>
       <r>   -6.4953    1.0000 </r>
       <r>   -6.4953    1.0000 </r>
       <r>   -6.4952    1.0000 </r>
       <r>   -6.4895    1.0000 </r>
       <r>   -6.4895    1.0000 </r>
       <r>   -6.4771    1.0000 </r>
       <r>   -6.4770    1.0000 </r>
       <r>   -6.4770    1.0000 </r>
       <r>   -6.4768    1.0000 </r>
       <r>   -6.4756    1.0000 </r>
       <r>   -6.4755    1.0000 </r>
       <r>   -6.4755    1.0000 </r>
       <r>   -6.4754    1.0000 </r>
       <r>   -6.4714    1.0000 </r>
       <r>   -6.4712    1.0000 </r>
       <r>   -6.4712    1.0000 </r>
       <r>   -6.4710    1.0000 </r>
       <r>   -6.4643    1.0000 </r>
       <r>   -6.4621    1.0000 </r>
       <r>   -6.4610    1.0000 </r>
       <r>   -6.4610    1.0000 </r>
       <r>   -6.4610    1.0000 </r>
       <r>   -6.4610    1.0000 </r>
       <r>   -6.4596    1.0000 </r>
       <r>   -6.4596    1.0000 </r>
       <r>   -6.4596    1.0000 </r>
       <r>   -6.4596    1.0000 </r>
       <r>   -6.4590    1.0000 </r>
       <r>   -6.4579    1.0000 </r>
       <r>   -6.4578    1.0000 </r>
       <r>   -6.4577    1.0000 </r>
       <r>   -6.4576    1.0000 </r>
       <r>   -6.4568    1.0000 </r>
       <r>   -6.4568    1.0000 </r>
       <r>   -6.4567    1.0000 </r>
       <r>   -6.4565    1.0000 </r>
       <r>   -6.4558    1.0000 </r>
       <r>   -6.4557    1.0000 </r>
       <r>   -6.4556    1.0000 </r>
       <r>   -6.4555    1.0000 </r>
       <r>   -6.4554    1.0000 </r>
       <r>   -6.4553    1.0000 </r>
       <r>   -6.4553    1.0000 </r>
       <r>   -6.4552    1.0000 </r>
       <r>   -6.4551    1.0000 </r>
       <r>   -6.4551    1.0000 </r>
       <r>   -6.4547    1.0000 </r>
       <r>   -6.4547    1.0000 </r>
       <r>   -6.4544    1.0000 </r>
       <r>   -6.4506    1.0000 </r>
       <r>   -6.4505    1.0000 </r>
       <r>   -6.4504    1.0000 </r>
       <r>   -6.4503    1.0000 </r>
       <r>   -6.4495    1.0000 </r>
       <r>   -6.4494    1.0000 </r>
       <r>   -6.4439    1.0000 </r>
       <r>   -6.4415    1.0000 </r>
       <r>   -6.4415    1.0000 </r>
       <r>   -6.4399    1.0000 </r>
       <r>   -6.4042    1.0000 </r>
       <r>   -6.4041    1.0000 </r>
       <r>   -6.4041    1.0000 </r>
       <r>   -6.4039    1.0000 </r>
       <r>   -6.3373    1.0000 </r>
       <r>   -6.3372    1.0000 </r>
       <r>   -6.3372    1.0000 </r>
       <r>   -6.3371    1.0000 </r>
       <r>   -6.2959    1.0000 </r>
       <r>   -6.2317    1.0000 </r>
       <r>   -6.2317    1.0000 </r>
       <r>   -6.2316    1.0000 </r>
       <r>   -6.2315    1.0000 </r>
       <r>   -6.2113    1.0000 </r>
       <r>   -6.2112    1.0000 </r>
       <r>   -6.2111    1.0000 </r>
       <r>   -6.2110    1.0000 </r>
       <r>   -6.1608    1.0000 </r>
       <r>   -6.1457    1.0000 </r>
       <r>   -6.1457    1.0000 </r>
       <r>   -6.1456    1.0000 </r>
       <r>   -6.1456    1.0000 </r>
       <r>   -6.0884    1.0000 </r>
       <r>   -6.0884    1.0000 </r>
       <r>   -6.0765    1.0000 </r>
       <r>   -6.0764    1.0000 </r>
       <r>   -6.0764    1.0000 </r>
       <r>   -6.0764    1.0000 </r>
       <r>   -6.0634    1.0000 </r>
       <r>   -6.0634    1.0000 </r>
       <r>   -2.4299    1.0000 </r>
       <r>   -2.4299    1.0000 </r>
       <r>   -2.3808    1.0000 </r>
       <r>   -2.3802    1.0000 </r>
       <r>   -2.3798    1.0000 </r>
       <r>   -2.3792    1.0000 </r>
       <r>   -2.3743    1.0000 </r>
       <r>   -2.3743    1.0000 </r>
       <r>   -2.3106    1.0000 </r>
       <r>   -2.3104    1.0000 </r>
       <r>   -2.3101    1.0000 </r>
       <r>   -2.3098    1.0000 </r>
       <r>   -2.2840    1.0000 </r>
       <r>   -2.1934    1.0000 </r>
       <r>   -2.1929    1.0000 </r>
       <r>   -2.1926    1.0000 </r>
       <r>   -2.1922    1.0000 </r>
       <r>   -2.1331    1.0000 </r>
       <r>   -2.1326    1.0000 </r>
       <r>   -2.1324    1.0000 </r>
       <r>   -2.1319    1.0000 </r>
       <r>   -1.8203    1.0000 </r>
       <r>   -1.6499    1.0000 </r>
       <r>   -1.6494    1.0000 </r>
       <r>   -1.6491    1.0000 </r>
[...]
      </set>
     </set>
    </set>
   </array>
  </eigenvalues>
  <separator name="orbital magnetization" >
   <v name="MAGDIPOLOUT">      0.00000000      0.00000000      0.00000000</v>
  </separator>
  <dos>
   <i name="efermi">      1.48130680 </i>
   <total>
    <array>
     <dimension dim="1">gridpoints</dimension>
     <dimension dim="2">spin</dimension>
     <field>energy</field>
     <field>total</field>
     <field>integrated</field>
     <set>
      <set comment="spin 1">
       <r>   -10.0765     0.0000     0.0000 </r>
       <r>   -10.0159     0.0000     0.0000 </r>
       <r>    -9.9553     0.0000     0.0000 </r>
       <r>    -9.8947     0.0000     0.0000 </r>
       <r>    -9.8340     0.0000     0.0000 </r>
       <r>    -9.7734     0.0000     0.0000 </r>
       <r>    -9.7128     0.0000     0.0000 </r>
       <r>    -9.6522     0.0000     0.0000 </r>
       <r>    -9.5915     0.0000     0.0000 </r>
       <r>    -9.5309     0.0000     0.0000 </r>
       <r>    -9.4703     0.0000     0.0000 </r>
       <r>    -9.4097     0.0000     0.0000 </r>
       <r>    -9.3490     0.0047     0.0003 </r>
       <r>    -9.2884     0.5067     0.0310 </r>
       <r>    -9.2278     7.8096     0.5045 </r>
       <r>    -9.1672    27.5336     2.1737 </r>
       <r>    -9.1065    53.6824     5.4282 </r>
       <r>    -9.0459    87.9361    10.7593 </r>
       <r>    -8.9853   165.3402    20.7830 </r>
       <r>    -8.9247   308.4985    39.4858 </r>
       <r>    -8.8640   315.7447    58.6278 </r>
       <r>    -8.8034    85.4598    63.8088 </r>
       <r>    -8.7428     3.1440    63.9994 </r>
       <r>    -8.6822     0.0103    64.0000 </r>
       <r>    -8.6215     0.0000    64.0000 </r>
       <r>    -8.5609     0.0000    64.0000 </r>
       <r>    -8.5003     0.0000    64.0000 </r>
       <r>    -8.4397     0.0000    64.0000 </r>
       <r>    -8.3790     0.0000    64.0000 </r>
       <r>    -8.3184     0.0000    64.0000 </r>
       <r>    -8.2578     0.0000    64.0000 </r>
       <r>    -8.1972     0.0000    64.0000 </r>
       <r>    -8.1365     0.0000    64.0000 </r>
       <r>    -8.0759     0.0000    64.0000 </r>
       <r>    -8.0153     0.0000    64.0000 </r>
       <r>    -7.9547     0.0000    64.0000 </r>
       <r>    -7.8940     0.0000    64.0000 </r>
       <r>    -7.8334     0.0000    64.0000 </r>
       <r>    -7.7728     0.0000    64.0000 </r>
       <r>    -7.7122     0.0000    64.0000 </r>
       <r>    -7.6515     0.0000    64.0000 </r>
       <r>    -7.5909     0.0000    64.0000 </r>
       <r>    -7.5303     0.0000    64.0000 </r>
       <r>    -7.4697     0.0000    64.0000 </r>
       <r>    -7.4090     0.0000    64.0000 </r>
       <r>    -7.3484     0.0000    64.0000 </r>
       <r>    -7.2878     0.0000    64.0000 </r>
       <r>    -7.2272     0.0000    64.0000 </r>
       <r>    -7.1665     0.0000    64.0000 </r>
       <r>    -7.1059     0.0000    64.0000 </r>
       <r>    -7.0453     0.0000    64.0000 </r>
       <r>    -6.9847     0.0000    64.0000 </r>
       <r>    -6.9240     0.0000    64.0000 </r>
       <r>    -6.8634     0.0000    64.0000 </r>
       <r>    -6.8028     0.0000    64.0000 </r>
       <r>    -6.7422     0.0792    64.0048 </r>
       <r>    -6.6815    13.7197    64.8366 </r>
       <r>    -6.6209   301.8678    83.1373 </r>
       <r>    -6.5603  1114.4934   150.7034 </r>
       <r>    -6.4997  1095.6958   217.1299 </r>
       <r>    -6.4390  1282.0439   294.8538 </r>
       <r>    -6.3784   583.5613   330.2322 </r>
       <r>    -6.3178   106.7612   336.7046 </r>
       <r>    -6.2572   107.2183   343.2047 </r>
       <r>    -6.1965   156.6359   352.7007 </r>
       <r>    -6.1359   204.8826   365.1217 </r>
       <r>    -6.0753   216.0911   378.2222 </r>
       <r>    -6.0147    88.3143   383.5763 </r>
       <r>    -5.9540     6.9243   383.9961 </r>
       <r>    -5.8934     0.0645   384.0000 </r>
       <r>    -5.8328     0.0001   384.0000 </r>
       <r>    -5.7722     0.0000   384.0000 </r>
       <r>    -5.7115     0.0000   384.0000 </r>
       <r>    -5.6509     0.0000   384.0000 </r>
       <r>    -5.5903     0.0000   384.0000 </r>
       <r>    -5.5297     0.0000   384.0000 </r>
       <r>    -5.4690     0.0000   384.0000 </r>
       <r>    -5.4084     0.0000   384.0000 </r>
       <r>    -5.3478     0.0000   384.0000 </r>
       <r>    -5.2872     0.0000   384.0000 </r>
       <r>    -5.2265     0.0000   384.0000 </r>
       <r>    -5.1659     0.0000   384.0000 </r>
       <r>    -5.1053     0.0000   384.0000 </r>
       <r>    -5.0447     0.0000   384.0000 </r>
       <r>    -4.9840     0.0000   384.0000 </r>
       <r>    -4.9234     0.0000   384.0000 </r>
       <r>    -4.8628     0.0000   384.0000 </r>
       <r>    -4.8022     0.0000   384.0000 </r>
       <r>    -4.7415     0.0000   384.0000 </r>
       <r>    -4.6809     0.0000   384.0000 </r>
       <r>    -4.6203     0.0000   384.0000 </r>
       <r>    -4.5597     0.0000   384.0000 </r>
       <r>    -4.4990     0.0000   384.0000 </r>
       <r>    -4.4384     0.0000   384.0000 </r>
       <r>    -4.3778     0.0000   384.0000 </r>
       <r>    -4.3172     0.0000   384.0000 </r>
       <r>    -4.2565     0.0000   384.0000 </r>
       <r>    -4.1959     0.0000   384.0000 </r>
       <r>    -4.1353     0.0000   384.0000 </r>
       <r>    -4.0747     0.0000   384.0000 </r>
       <r>    -4.0140     0.0000   384.0000 </r>
       <r>    -3.9534     0.0000   384.0000 </r>
       <r>    -3.8928     0.0000   384.0000 </r>
       <r>    -3.8322     0.0000   384.0000 </r>
       <r>    -3.7715     0.0000   384.0000 </r>
       <r>    -3.7109     0.0000   384.0000 </r>
       <r>    -3.6503     0.0000   384.0000 </r>
       <r>    -3.5897     0.0000   384.0000 </r>
       <r>    -3.5290     0.0000   384.0000 </r>
       <r>    -3.4684     0.0000   384.0000 </r>
       <r>    -3.4078     0.0000   384.0000 </r>
       <r>    -3.3472     0.0000   384.0000 </r>
       <r>    -3.2865     0.0000   384.0000 </r>
       <r>    -3.2259     0.0000   384.0000 </r>
       <r>    -3.1653     0.0000   384.0000 </r>
       <r>    -3.1047     0.0000   384.0000 </r>
       <r>    -3.0440     0.0000   384.0000 </r>
       <r>    -2.9834     0.0000   384.0000 </r>
       <r>    -2.9228     0.0000   384.0000 </r>
       <r>    -2.8622     0.0000   384.0000 </r>
       <r>    -2.8015     0.0000   384.0000 </r>
       <r>    -2.7409     0.0000   384.0000 </r>
       <r>    -2.6803     0.0000   384.0000 </r>
       <r>    -2.6197     0.0002   384.0000 </r>
       <r>    -2.5590     0.0767   384.0047 </r>
       <r>    -2.4984     2.5517   384.1594 </r>
       <r>    -2.4378    22.4310   385.5192 </r>
       <r>    -2.3772    77.3883   390.2109 </r>
       <r>    -2.3165   170.6025   400.5537 </r>
       <r>    -2.2559   184.2628   411.7246 </r>
       <r>    -2.1953    60.1232   415.3696 </r>
       <r>    -2.1347    78.0805   420.1032 </r>
       <r>    -2.0740    45.3869   422.8548 </r>
       <r>    -2.0134    25.0255   424.3719 </r>
       <r>    -1.9528    33.1103   426.3793 </r>
       <r>    -1.8922    30.0940   428.2037 </r>
       <r>    -1.8315    53.5337   431.4492 </r>
       <r>    -1.7709    32.2531   433.4045 </r>
       <r>    -1.7103     3.7116   433.6295 </r>
       <r>    -1.6497    13.3127   434.4366 </r>
       <r>    -1.5890    13.6417   435.2637 </r>
       <r>    -1.5284     6.8737   435.6804 </r>
       <r>    -1.4678    19.0562   436.8357 </r>
       <r>    -1.4072    18.9493   437.9844 </r>
       <r>    -1.3465    19.7602   439.1824 </r>
       <r>    -1.2859    19.1583   440.3439 </r>
       <r>    -1.2253     5.8546   440.6988 </r>
       <r>    -1.1647     8.9950   441.2441 </r>
       <r>    -1.1040    11.1238   441.9185 </r>
       <r>    -1.0434     1.3398   441.9997 </r>
       <r>    -0.9828     1.1897   442.0719 </r>
       <r>    -0.9222    13.1168   442.8671 </r>
       <r>    -0.8615    14.3067   443.7344 </r>
       <r>    -0.8009     8.5200   444.2509 </r>
       <r>    -0.7403    19.8813   445.4562 </r>
       <r>    -0.6797    50.4259   448.5133 </r>
       <r>    -0.6190    74.2502   453.0147 </r>
       <r>    -0.5584    84.1617   458.1170 </r>
       <r>    -0.4978    56.4231   461.5377 </r>
       <r>    -0.4372    66.7084   465.5819 </r>
       <r>    -0.3765    78.4033   470.3351 </r>
       <r>    -0.3159    44.0524   473.0057 </r>
       <r>    -0.2553    51.3527   476.1190 </r>
       <r>    -0.1947    73.0721   480.5490 </r>
       <r>    -0.1340    81.1039   485.4659 </r>
       <r>    -0.0734   109.5765   492.1090 </r>
       <r>    -0.0128   112.0487   498.9019 </r>
       <r>     0.0478   105.0814   505.2725 </r>
       <r>     0.1085    61.8989   509.0251 </r>
       <r>     0.1691    60.0552   512.6659 </r>
       <r>     0.2297    71.5985   517.0066 </r>
       <r>     0.2903    94.5599   522.7393 </r>
       <r>     0.3510   113.3397   529.6105 </r>
       <r>     0.4116    97.6317   535.5294 </r>
       <r>     0.4722    62.9069   539.3432 </r>
       <r>     0.5328    75.3340   543.9103 </r>
       <r>     0.5935    70.0077   548.1545 </r>
       <r>     0.6541    84.5888   553.2827 </r>
       <r>     0.7147   112.4787   560.1017 </r>
       <r>     0.7753    35.3088   562.2423 </r>
       <r>     0.8360    39.8298   564.6570 </r>
       <r>     0.8966    37.8761   566.9532 </r>
       <r>     0.9572    36.9133   569.1911 </r>
       <r>     1.0178    45.4596   571.9471 </r>
       <r>     1.0785    18.3228   573.0579 </r>
       <r>     1.1391    18.5761   574.1841 </r>
       <r>     1.1997    15.0684   575.0976 </r>
       <r>     1.2603    10.5323   575.7361 </r>
       <r>     1.3210     3.8626   575.9703 </r>
       <r>     1.3816     0.4825   575.9995 </r>
       <r>     1.4422     0.0078   576.0000 </r>
       <r>     1.5028     0.0000   576.0000 </r>
       <r>     1.5635     0.0010   576.0001 </r>
       <r>     1.6241     0.0902   576.0055 </r>
       <r>     1.6847     0.6509   576.0450 </r>
       <r>     1.7453     0.4512   576.0723 </r>
       <r>     1.8060     0.0285   576.0741 </r>
       <r>     1.8666     0.0001   576.0741 </r>
       <r>     1.9272     0.0000   576.0741 </r>
       <r>     1.9878     0.0000   576.0741 </r>
       <r>     2.0485     0.0000   576.0741 </r>
       <r>     2.1091     0.0000   576.0741 </r>
       <r>     2.1697     0.0000   576.0741 </r>
       <r>     2.2303     0.0000   576.0741 </r>
       <r>     2.2910     0.0000   576.0741 </r>
       <r>     2.3516     0.0031   576.0743 </r>
       <r>     2.4122     0.3796   576.0973 </r>
       <r>     2.4728     3.5483   576.3124 </r>
       <r>     2.5335     3.1398   576.5027 </r>
       <r>     2.5941     0.2592   576.5185 </r>
       <r>     2.6547     0.1986   576.5305 </r>
       <r>     2.7153     4.3512   576.7943 </r>
       <r>     2.7760     9.3908   577.3636 </r>
       <r>     2.8366     7.0927   577.7936 </r>
       <r>     2.8972     3.4165   578.0007 </r>
       <r>     2.9578     2.4458   578.1490 </r>
       <r>     3.0185     5.4114   578.4771 </r>
       <r>     3.0791     5.8024   578.8288 </r>
       <r>     3.1397     0.9813   578.8883 </r>
       <r>     3.2003     1.1796   578.9598 </r>
       <r>     3.2610    25.1224   580.4829 </r>
       <r>     3.3216    67.3078   584.5634 </r>
       <r>     3.3822    43.7080   587.2132 </r>
       <r>     3.4428    15.5112   588.1536 </r>
       <r>     3.5035     1.2780   588.2311 </r>
       <r>     3.5641     3.8938   588.4671 </r>
       <r>     3.6247     9.2331   589.0269 </r>
       <r>     3.6853    17.1131   590.0644 </r>
       <r>     3.7460    50.6604   593.1356 </r>
       <r>     3.8066    36.9772   595.3774 </r>
       <r>     3.8672    54.7491   598.6965 </r>
       <r>     3.9278    29.6960   600.4969 </r>
       <r>     3.9885    31.9099   602.4314 </r>
       <r>     4.0491    34.6828   604.5340 </r>
       <r>     4.1097    48.7218   607.4878 </r>
       <r>     4.1703   120.4174   614.7881 </r>
       <r>     4.2310   129.8851   622.6624 </r>
       <r>     4.2916    37.5928   624.9414 </r>
       <r>     4.3522    24.2501   626.4116 </r>
       <r>     4.4128    72.6185   630.8141 </r>
       <r>     4.4735    58.9095   634.3855 </r>
       <r>     4.5341    34.2197   636.4601 </r>
       <r>     4.5947    13.5633   637.2823 </r>
       <r>     4.6553    26.7041   638.9013 </r>
       <r>     4.7160    44.4112   641.5937 </r>
       <r>     4.7766    32.8730   643.5866 </r>
       <r>     4.8372    18.5267   644.7098 </r>
       <r>     4.8978    21.1622   645.9927 </r>
       <r>     4.9585    24.0009   647.4478 </r>
       <r>     5.0191    30.7361   649.3112 </r>
       <r>     5.0797    21.5737   650.6191 </r>
       <r>     5.1403    27.8605   652.3081 </r>
       <r>     5.2010    19.5355   653.4925 </r>
       <r>     5.2616    18.5178   654.6151 </r>
       <r>     5.3222    19.2074   655.7796 </r>
       <r>     5.3828    27.0906   657.4219 </r>
       <r>     5.4435    26.5741   659.0330 </r>
       <r>     5.5041    21.1565   660.3156 </r>
       <r>     5.5647     6.1789   660.6902 </r>
       <r>     5.6253    19.2455   661.8569 </r>
       <r>     5.6860    72.5975   666.2582 </r>
       <r>     5.7466    83.0392   671.2924 </r>
       <r>     5.8072    46.8609   674.1334 </r>
       <r>     5.8678     6.2519   674.5124 </r>
       <r>     5.9285    18.3167   675.6228 </r>
       <r>     5.9891    72.2957   680.0057 </r>
       <r>     6.0497    95.4438   685.7920 </r>
       <r>     6.1103    91.6385   691.3476 </r>
       <r>     6.1710    52.9088   694.5552 </r>
       <r>     6.2316    37.9148   696.8538 </r>
       <r>     6.2922    74.3542   701.3615 </r>
       <r>     6.3528    52.9443   704.5712 </r>
       <r>     6.4134    38.4029   706.8994 </r>
       <r>     6.4741    45.6172   709.6650 </r>
       <r>     6.5347    31.5477   711.5775 </r>
       <r>     6.5953    67.5694   715.6739 </r>
       <r>     6.6559   128.1744   723.4445 </r>
       <r>     6.7166    79.3235   728.2535 </r>
       <r>     6.7772    84.7989   733.3944 </r>
       <r>     6.8378    94.9584   739.1513 </r>
       <r>     6.8984    90.1222   744.6149 </r>
       <r>     6.9591    53.0425   747.8306 </r>
       <r>     7.0197    70.4104   752.0992 </r>
       <r>     7.0803    59.8229   755.7260 </r>
       <r>     7.1409    63.9827   759.6050 </r>
       <r>     7.2016    58.2398   763.1357 </r>
       <r>     7.2622    58.8760   766.7051 </r>
       <r>     7.3228    19.6602   767.8970 </r>
       <r>     7.3834     1.6739   767.9985 </r>
       <r>     7.4441     0.0250   768.0000 </r>
       <r>     7.5047     0.0000   768.0000 </r>
       <r>     7.5653     0.0000   768.0000 </r>
       <r>     7.6259     0.0000   768.0000 </r>
       <r>     7.6866     0.0000   768.0000 </r>
       <r>     7.7472     0.0000   768.0000 </r>
       <r>     7.8078     0.0000   768.0000 </r>
       <r>     7.8684     0.0000   768.0000 </r>
       <r>     7.9291     0.0000   768.0000 </r>
       <r>     7.9897     0.0000   768.0000 </r>
       <r>     8.0503     0.0000   768.0000 </r>
       <r>     8.1109     0.0000   768.0000 </r>
      </set>
     </set>
    </array>
   </total>
  </dos>
 </calculation>
 <structure name="finalpos" >
  <crystal>
   <varray name="basis" >
    <v>      13.52329754       0.00000000       0.00000000 </v>
    <v>       0.00000000      13.52329754       0.00000000 </v>
    <v>       0.00000000       0.00000000      13.52329754 </v>
   </varray>
   <i name="volume">   2473.13492757 </i>
   <varray name="rec_basis" >
    <v>       0.07394646       0.00000000       0.00000000 </v>
    <v>       0.00000000       0.07394646       0.00000000 </v>
    <v>       0.00000000       0.00000000       0.07394646 </v>
   </varray>
  </crystal>
  <varray name="positions" >
   <v>       0.00073946       0.00000000       0.00000000 </v>
   <v>       0.50000000       0.00000000       0.00000000 </v>
   <v>       0.00000000       0.50000000       0.00000000 </v>
   <v>       0.50000000       0.50000000       0.00000000 </v>
   <v>       0.00000000       0.00000000       0.50000000 </v>
   <v>       0.50000000       0.00000000       0.50000000 </v>
   <v>       0.00000000       0.50000000       0.50000000 </v>
   <v>       0.50000000       0.50000000       0.50000000 </v>
   <v>       0.00000000       0.25000000       0.25000000 </v>
   <v>       0.50000000       0.25000000       0.25000000 </v>
   <v>       0.00000000       0.75000000       0.25000000 </v>
   <v>       0.50000000       0.75000000       0.25000000 </v>
   <v>       0.00000000       0.25000000       0.75000000 </v>
   <v>       0.50000000       0.25000000       0.75000000 </v>
   <v>       0.00000000       0.75000000       0.75000000 </v>
   <v>       0.50000000       0.75000000       0.75000000 </v>
   <v>       0.25000000       0.00000000       0.25000000 </v>
   <v>       0.75000000       0.00000000       0.25000000 </v>
   <v>       0.25000000       0.50000000       0.25000000 </v>
   <v>       0.75000000       0.50000000       0.25000000 </v>
   <v>       0.25000000       0.00000000       0.75000000 </v>
   <v>       0.75000000       0.00000000       0.75000000 </v>
   <v>       0.25000000       0.50000000       0.75000000 </v>
   <v>       0.75000000       0.50000000       0.75000000 </v>
   <v>       0.25000000       0.25000000       0.00000000 </v>
   <v>       0.75000000       0.25000000       0.00000000 </v>
   <v>       0.25000000       0.75000000       0.00000000 </v>
   <v>       0.75000000       0.75000000       0.00000000 </v>
   <v>       0.25000000       0.25000000       0.50000000 </v>
   <v>       0.75000000       0.25000000       0.50000000 </v>
   <v>       0.25000000       0.75000000       0.50000000 </v>
   <v>       0.75000000       0.75000000       0.50000000 </v>
   <v>       0.12500000       0.12500000       0.12500000 </v>
   <v>       0.62500000       0.12500000       0.12500000 </v>
   <v>       0.12500000       0.62500000       0.12500000 </v>
   <v>       0.62500000       0.62500000       0.12500000 </v>
   <v>       0.12500000       0.12500000       0.62500000 </v>
   <v>       0.62500000       0.12500000       0.62500000 </v>
   <v>       0.12500000       0.62500000       0.62500000 </v>
   <v>       0.62500000       0.62500000       0.62500000 </v>
   <v>       0.12500000       0.37500000       0.37500000 </v>
   <v>       0.62500000       0.37500000       0.37500000 </v>
   <v>       0.12500000       0.87500000       0.37500000 </v>
   <v>       0.62500000       0.87500000       0.37500000 </v>
   <v>       0.12500000       0.37500000       0.87500000 </v>
   <v>       0.62500000       0.37500000       0.87500000 </v>
   <v>       0.12500000       0.87500000       0.87500000 </v>
   <v>       0.62500000       0.87500000       0.87500000 </v>
   <v>       0.37500000       0.12500000       0.37500000 </v>
   <v>       0.87500000       0.12500000       0.37500000 </v>
   <v>       0.37500000       0.62500000       0.37500000 </v>
   <v>       0.87500000       0.62500000       0.37500000 </v>
   <v>       0.37500000       0.12500000       0.87500000 </v>
   <v>       0.87500000       0.12500000       0.87500000 </v>
   <v>       0.37500000       0.62500000       0.87500000 </v>
   <v>       0.87500000       0.62500000       0.87500000 </v>
   <v>       0.37500000       0.37500000       0.12500000 </v>
   <v>       0.87500000       0.37500000       0.12500000 </v>
   <v>       0.37500000       0.87500000       0.12500000 </v>
   <v>       0.87500000       0.87500000       0.12500000 </v>
   <v>       0.37500000       0.37500000       0.62500000 </v>
   <v>       0.87500000       0.37500000       0.62500000 </v>
   <v>       0.37500000       0.87500000       0.62500000 </v>
   <v>       0.87500000       0.87500000       0.62500000 </v>
  </varray>
 </structure>
</modeling>
