<?xml version="1.0" encoding="ISO-8859-1"?>
<modeling>
 <generator>
  <i name="program" type="string">vasp </i>
  <i name="version" type="string">6.3.0  </i>
  <i name="subversion" type="string">20Jan22 (build Feb 10 2022 15:15:41) complex                          parallel </i>
  <i name="platform" type="string">LinuxIFC </i>
  <i name="date" type="string">2023 10 04 </i>
  <i name="time" type="string">16:12:39 </i>
 </generator>
 <incar>
  <i name="EDIFF">      0.00010000</i>
  <i name="ENCUT">    400.00000000</i>
  <i type="int" name="ISMEAR">     0</i>
  <i name="SIGMA">      0.05000000</i>
 </incar>
 <primitive_cell>
  <structure name="primitive_cell" >
   <crystal>
    <varray name="basis" >
     <v>       7.99605807       0.00000000       0.00000000 </v>
     <v>       0.00000000       7.99605807       0.00000000 </v>
     <v>       0.00000000       0.00000000       7.99605807 </v>
    </varray>
    <i name="volume">    511.24352321 </i>
    <varray name="rec_basis" >
     <v>       0.12506162       0.00000000       0.00000000 </v>
     <v>       0.00000000       0.12506162       0.00000000 </v>
     <v>       0.00000000       0.00000000       0.12506162 </v>
    </varray>
   </crystal>
   <varray name="positions" >
    <v>       0.00125062       0.00000000       0.00000000 </v>
    <v>       0.50000000       0.00000000       0.00000000 </v>
    <v>       0.00000000       0.50000000       0.00000000 </v>
    <v>       0.50000000       0.50000000       0.00000000 </v>
    <v>       0.00000000       0.00000000       0.50000000 </v>
    <v>       0.50000000       0.00000000       0.50000000 </v>
    <v>       0.00000000       0.50000000       0.50000000 </v>
    <v>       0.50000000       0.50000000       0.50000000 </v>
    <v>       0.00000000       0.25000000       0.25000000 </v>
    <v>       0.50000000       0.25000000       0.25000000 </v>
    <v>       0.00000000       0.75000000       0.25000000 </v>
    <v>       0.50000000       0.75000000       0.25000000 </v>
    <v>       0.00000000       0.25000000       0.75000000 </v>
    <v>       0.50000000       0.25000000       0.75000000 </v>
    <v>       0.00000000       0.75000000       0.75000000 </v>
    <v>       0.50000000       0.75000000       0.75000000 </v>
    <v>       0.25000000       0.00000000       0.25000000 </v>
    <v>       0.75000000       0.00000000       0.25000000 </v>
    <v>       0.25000000       0.50000000       0.25000000 </v>
    <v>       0.75000000       0.50000000       0.25000000 </v>
    <v>       0.25000000       0.00000000       0.75000000 </v>
    <v>       0.75000000       0.00000000       0.75000000 </v>
    <v>       0.25000000       0.50000000       0.75000000 </v>
    <v>       0.75000000       0.50000000       0.75000000 </v>
    <v>       0.25000000       0.25000000       0.00000000 </v>
    <v>       0.75000000       0.25000000       0.00000000 </v>
    <v>       0.25000000       0.75000000       0.00000000 </v>
    <v>       0.75000000       0.75000000       0.00000000 </v>
    <v>       0.25000000       0.25000000       0.50000000 </v>
    <v>       0.75000000       0.25000000       0.50000000 </v>
    <v>       0.25000000       0.75000000       0.50000000 </v>
    <v>       0.75000000       0.75000000       0.50000000 </v>
   </varray>
  </structure>
  <varray name="primitive_index" >
   <v type="int" >        1 </v>
   <v type="int" >        2 </v>
   <v type="int" >        3 </v>
   <v type="int" >        4 </v>
   <v type="int" >        5 </v>
   <v type="int" >        6 </v>
   <v type="int" >        7 </v>
   <v type="int" >        8 </v>
   <v type="int" >        9 </v>
   <v type="int" >       10 </v>
   <v type="int" >       11 </v>
   <v type="int" >       12 </v>
   <v type="int" >       13 </v>
   <v type="int" >       14 </v>
   <v type="int" >       15 </v>
   <v type="int" >       16 </v>
   <v type="int" >       17 </v>
   <v type="int" >       18 </v>
   <v type="int" >       19 </v>
   <v type="int" >       20 </v>
   <v type="int" >       21 </v>
   <v type="int" >       22 </v>
   <v type="int" >       23 </v>
   <v type="int" >       24 </v>
   <v type="int" >       25 </v>
   <v type="int" >       26 </v>
   <v type="int" >       27 </v>
   <v type="int" >       28 </v>
   <v type="int" >       29 </v>
   <v type="int" >       30 </v>
   <v type="int" >       31 </v>
   <v type="int" >       32 </v>
  </varray>
 </primitive_cell>
 <kpoints>
  <generation param="Gamma">
   <v type="int" name="divisions">       8        8        8 </v>
   <v name="usershift">      0.00000000       0.00000000       0.00000000 </v>
   <v name="genvec1">      0.12500000       0.00000000       0.00000000 </v>
   <v name="genvec2">      0.00000000       0.12500000       0.00000000 </v>
   <v name="genvec3">      0.00000000       0.00000000       0.12500000 </v>
   <v name="shift">      0.00000000       0.00000000       0.00000000 </v>
  </generation>
  <varray name="kpointlist" >
   <v>       0.00000000       0.00000000       0.00000000 </v>
   <v>       0.12500000       0.00000000       0.00000000 </v>
   <v>       0.00000000       0.12500000       0.00000000 </v>
   <v>       0.25000000       0.00000000       0.00000000 </v>
   <v>       0.00000000       0.25000000       0.00000000 </v>
   <v>       0.37500000       0.00000000       0.00000000 </v>
   <v>       0.00000000       0.37500000       0.00000000 </v>
   <v>       0.50000000       0.00000000       0.00000000 </v>
   <v>       0.00000000       0.50000000       0.00000000 </v>
   <v>       0.12500000       0.12500000       0.00000000 </v>
   <v>       0.00000000       0.12500000       0.12500000 </v>
   <v>       0.25000000       0.12500000       0.00000000 </v>
   <v>       0.00000000       0.25000000       0.12500000 </v>
   <v>       0.12500000       0.00000000       0.25000000 </v>
   <v>       0.37500000       0.12500000       0.00000000 </v>
   <v>       0.00000000       0.37500000       0.12500000 </v>
   <v>       0.12500000       0.00000000       0.37500000 </v>
   <v>       0.50000000       0.12500000       0.00000000 </v>
   <v>       0.00000000       0.50000000       0.12500000 </v>
   <v>       0.12500000       0.00000000       0.50000000 </v>
   <v>       0.25000000       0.25000000       0.00000000 </v>
   <v>       0.00000000       0.25000000       0.25000000 </v>
   <v>       0.37500000       0.25000000       0.00000000 </v>
   <v>       0.00000000       0.37500000       0.25000000 </v>
   <v>       0.25000000       0.00000000       0.37500000 </v>
   <v>       0.50000000       0.25000000       0.00000000 </v>
   <v>       0.00000000       0.50000000       0.25000000 </v>
   <v>       0.25000000       0.00000000       0.50000000 </v>
   <v>       0.37500000       0.37500000       0.00000000 </v>
   <v>       0.00000000       0.37500000       0.37500000 </v>
   <v>       0.50000000       0.37500000       0.00000000 </v>
   <v>       0.00000000       0.50000000       0.37500000 </v>
   <v>       0.37500000       0.00000000       0.50000000 </v>
   <v>       0.50000000       0.50000000       0.00000000 </v>
   <v>       0.00000000       0.50000000       0.50000000 </v>
   <v>       0.12500000       0.12500000       0.12500000 </v>
   <v>       0.25000000       0.12500000       0.12500000 </v>
   <v>       0.12500000       0.25000000       0.12500000 </v>
   <v>       0.37500000       0.12500000       0.12500000 </v>
   <v>       0.12500000       0.37500000       0.12500000 </v>
   <v>       0.50000000       0.12500000       0.12500000 </v>
   <v>       0.12500000       0.50000000       0.12500000 </v>
   <v>       0.25000000       0.25000000       0.12500000 </v>
   <v>       0.12500000       0.25000000       0.25000000 </v>
   <v>       0.37500000       0.25000000       0.12500000 </v>
   <v>       0.12500000       0.37500000       0.25000000 </v>
   <v>       0.25000000       0.12500000       0.37500000 </v>
   <v>       0.50000000       0.25000000       0.12500000 </v>
   <v>       0.12500000       0.50000000       0.25000000 </v>
   <v>       0.25000000       0.12500000       0.50000000 </v>
   <v>       0.37500000       0.37500000       0.12500000 </v>
   <v>       0.12500000       0.37500000       0.37500000 </v>
   <v>       0.50000000       0.37500000       0.12500000 </v>
   <v>       0.12500000       0.50000000       0.37500000 </v>
   <v>       0.37500000       0.12500000       0.50000000 </v>
   <v>       0.50000000       0.50000000       0.12500000 </v>
   <v>       0.12500000       0.50000000       0.50000000 </v>
   <v>       0.25000000       0.25000000       0.25000000 </v>
   <v>       0.37500000       0.25000000       0.25000000 </v>
   <v>       0.25000000       0.37500000       0.25000000 </v>
   <v>       0.50000000       0.25000000       0.25000000 </v>
   <v>       0.25000000       0.50000000       0.25000000 </v>
   <v>       0.37500000       0.37500000       0.25000000 </v>
   <v>       0.25000000       0.37500000       0.37500000 </v>
   <v>       0.50000000       0.37500000       0.25000000 </v>
   <v>       0.25000000       0.50000000       0.37500000 </v>
   <v>       0.37500000       0.25000000       0.50000000 </v>
   <v>       0.50000000       0.50000000       0.25000000 </v>
   <v>       0.25000000       0.50000000       0.50000000 </v>
   <v>       0.37500000       0.37500000       0.37500000 </v>
   <v>       0.50000000       0.37500000       0.37500000 </v>
   <v>       0.37500000       0.50000000       0.37500000 </v>
   <v>       0.50000000       0.50000000       0.37500000 </v>
   <v>       0.37500000       0.50000000       0.50000000 </v>
   <v>       0.50000000       0.50000000       0.50000000 </v>
  </varray>
  <varray name="weights" >
   <v>       0.00195312 </v>
   <v>       0.00390625 </v>
   <v>       0.00781250 </v>
   <v>       0.00390625 </v>
   <v>       0.00781250 </v>
   <v>       0.00390625 </v>
   <v>       0.00781250 </v>
   <v>       0.00195312 </v>
   <v>       0.00390625 </v>
   <v>       0.01562500 </v>
   <v>       0.00781250 </v>
   <v>       0.01562500 </v>
   <v>       0.01562500 </v>
   <v>       0.01562500 </v>
   <v>       0.01562500 </v>
   <v>       0.01562500 </v>
   <v>       0.01562500 </v>
   <v>       0.00781250 </v>
   <v>       0.00781250 </v>
   <v>       0.00781250 </v>
   <v>       0.01562500 </v>
   <v>       0.00781250 </v>
   <v>       0.01562500 </v>
   <v>       0.01562500 </v>
   <v>       0.01562500 </v>
   <v>       0.00781250 </v>
   <v>       0.00781250 </v>
   <v>       0.00781250 </v>
   <v>       0.01562500 </v>
   <v>       0.00781250 </v>
   <v>       0.00781250 </v>
   <v>       0.00781250 </v>
   <v>       0.00781250 </v>
   <v>       0.00390625 </v>
   <v>       0.00195312 </v>
   <v>       0.01562500 </v>
   <v>       0.01562500 </v>
   <v>       0.03125000 </v>
   <v>       0.01562500 </v>
   <v>       0.03125000 </v>
   <v>       0.00781250 </v>
   <v>       0.01562500 </v>
   <v>       0.03125000 </v>
   <v>       0.01562500 </v>
   <v>       0.03125000 </v>
   <v>       0.03125000 </v>
   <v>       0.03125000 </v>
   <v>       0.01562500 </v>
   <v>       0.01562500 </v>
   <v>       0.01562500 </v>
   <v>       0.03125000 </v>
   <v>       0.01562500 </v>
   <v>       0.01562500 </v>
   <v>       0.01562500 </v>
   <v>       0.01562500 </v>
   <v>       0.00781250 </v>
   <v>       0.00390625 </v>
   <v>       0.01562500 </v>
   <v>       0.01562500 </v>
   <v>       0.03125000 </v>
   <v>       0.00781250 </v>
   <v>       0.01562500 </v>
   <v>       0.03125000 </v>
   <v>       0.01562500 </v>
   <v>       0.01562500 </v>
   <v>       0.01562500 </v>
   <v>       0.01562500 </v>
   <v>       0.00781250 </v>
   <v>       0.00390625 </v>
   <v>       0.01562500 </v>
   <v>       0.00781250 </v>
   <v>       0.01562500 </v>
   <v>       0.00781250 </v>
   <v>       0.00390625 </v>
   <v>       0.00195312 </v>
  </varray>
 </kpoints>
 <parameters>
  <separator name="general" >
   <i type="string" name="SYSTEM">unknown system</i>
   <i type="logical" name="LCOMPAT"> F  </i>
  </separator>
  <separator name="electronic" >
   <i type="string" name="PREC">normal</i>
   <i name="ENMAX">    400.00000000</i>
   <i name="ENAUG">    291.05200000</i>
   <i name="EDIFF">      0.00010000</i>
   <i type="int" name="IALGO">    38</i>
   <i type="int" name="IWAVPR">    10</i>
   <i type="int" name="NBANDS">    72</i>
   <i type="int" name="NBANDSLOW">    -1</i>
   <i type="int" name="NBANDSHIGH">    -1</i>
   <i name="NELECT">     96.00000000</i>
   <i type="int" name="TURBO">     0</i>
   <i type="int" name="IRESTART">     0</i>
   <i type="int" name="NREBOOT">     0</i>
   <i type="int" name="NMIN">     0</i>
   <i name="EREF">      0.00000000</i>
   <separator name="electronic smearing" >
    <i type="int" name="ISMEAR">     0</i>
    <i name="SIGMA">      0.05000000</i>
    <i name="KSPACING">      0.50000000</i>
    <i type="logical" name="KGAMMA"> T  </i>
    <i type="logical" name="KBLOWUP"> T  </i>
   </separator>
   <separator name="electronic projectors" >
    <i type="logical" name="LREAL"> F  </i>
    <v name="ROPT">      0.00000000</v>
    <i type="int" name="LMAXPAW">  -100</i>
    <i type="int" name="LMAXMIX">     2</i>
    <i type="logical" name="NLSPLINE"> F  </i>
   </separator>
   <separator name="electronic startup" >
    <i type="int" name="ISTART">     0</i>
    <i type="int" name="ICHARG">     2</i>
    <i type="int" name="INIWAV">     1</i>
   </separator>
   <separator name="electronic spin" >
    <i type="int" name="ISPIN">     1</i>
    <i type="logical" name="LNONCOLLINEAR"> F  </i>
    <v name="MAGMOM">      1.00000000      1.00000000      1.00000000      1.00000000      1.00000000      1.00000000      1.00000000      1.00000000      1.00000000      1.00000000      1.00000000      1.00000000      1.00000000      1.00000000      1.00000000      1.00000000      1.00000000      1.00000000      1.00000000      1.00000000
      1.00000000      1.00000000      1.00000000      1.00000000      1.00000000      1.00000000      1.00000000      1.00000000      1.00000000      1.00000000      1.00000000      1.00000000</v>
    <i name="NUPDOWN">     -1.00000000</i>
    <i type="logical" name="LSORBIT"> F  </i>
    <v name="SAXIS">      0.00000000      0.00000000      1.00000000</v>
    <i type="logical" name="LSPIRAL"> F  </i>
    <v name="QSPIRAL">      0.00000000      0.00000000      0.00000000</v>
    <i type="logical" name="LZEROZ"> F  </i>
   </separator>
   <separator name="electronic exchange-correlation" >
    <i type="logical" name="LASPH"> F  </i>
    <i type="logical" name="LMETAGGA"> F  </i>
   </separator>
   <separator name="electronic convergence" >
    <i type="int" name="NELM">    60</i>
    <i type="int" name="NELMDL">    -5</i>
    <i type="int" name="NELMIN">     2</i>
    <i name="ENINI">    400.00000000</i>
    <separator name="electronic convergence detail" >
     <i type="logical" name="LDIAG"> T  </i>
     <i type="logical" name="LSUBROT"> F  </i>
     <i name="WEIMIN">      0.00000000</i>
     <i name="EBREAK">      0.00000035</i>
     <i name="DEPER">      0.30000000</i>
     <i type="int" name="NRMM">     4</i>
     <i name="TIME">      0.40000000</i>
    </separator>
   </separator>
   <separator name="electronic mixer" >
    <i name="AMIX">      0.40000000</i>
    <i name="BMIX">      1.00000000</i>
    <i name="AMIN">      0.10000000</i>
    <i name="AMIX_MAG">      1.60000000</i>
    <i name="BMIX_MAG">      1.00000000</i>
    <separator name="electronic mixer details" >
     <i type="int" name="IMIX">     4</i>
     <i type="logical" name="MIXFIRST"> F  </i>
     <i type="int" name="MAXMIX">   -45</i>
     <i name="WC">    100.00000000</i>
     <i type="int" name="INIMIX">     1</i>
     <i type="int" name="MIXPRE">     1</i>
     <i type="int" name="MREMOVE">     5</i>
    </separator>
   </separator>
   <separator name="electronic dipolcorrection" >
    <i type="logical" name="LDIPOL"> F  </i>
    <i type="logical" name="LMONO"> F  </i>
    <i type="int" name="IDIPOL">     0</i>
    <i name="EPSILON">      1.00000000</i>
    <v name="DIPOL">   -100.00000000   -100.00000000   -100.00000000</v>
    <i name="EFIELD">      0.00000000</i>
   </separator>
  </separator>
  <separator name="grids" >
   <i type="int" name="NGX">    40</i>
   <i type="int" name="NGY">    40</i>
   <i type="int" name="NGZ">    40</i>
   <i type="int" name="NGXF">    80</i>
   <i type="int" name="NGYF">    80</i>
   <i type="int" name="NGZF">    80</i>
   <i type="logical" name="ADDGRID"> F  </i>
  </separator>
  <separator name="ionic" >
   <i type="int" name="NSW">     0</i>
   <i type="int" name="IBRION">    -1</i>
   <i type="int" name="MDALGO">     0</i>
   <i type="int" name="ISIF">     2</i>
   <i name="PSTRESS">      0.00000000</i>
   <i name="EDIFFG">      0.00100000</i>
   <i type="int" name="NFREE">     0</i>
   <i name="POTIM">      0.50000000</i>
   <i name="SMASS">     -3.00000000</i>
   <i name="SCALEE">      1.00000000</i>
  </separator>
  <separator name="ionic md" >
   <i name="TEBEG">      0.00010000</i>
   <i name="TEEND">      0.00010000</i>
   <i type="int" name="NBLOCK">     1</i>
   <i type="int" name="KBLOCK">     1</i>
   <i type="int" name="NPACO">   256</i>
   <i name="APACO">     10.00000000</i>
  </separator>
  <separator name="symmetry" >
   <i type="int" name="ISYM">     2</i>
   <i name="SYMPREC">      0.00001000</i>
  </separator>
  <separator name="dos" >
   <i type="int" name="LORBIT">     0</i>
   <v name="RWIGS">     -1.00000000</v>
   <i type="int" name="NEDOS">   301</i>
   <i name="EMIN">     10.00000000</i>
   <i name="EMAX">    -10.00000000</i>
   <i name="EFERMI">      0.00000000</i>
  </separator>
  <separator name="writing" >
   <i type="int" name="NWRITE">     2</i>
   <i type="logical" name="LWAVE"> T  </i>
   <i type="logical" name="LDOWNSAMPLE"> F  </i>
   <i type="logical" name="LCHARG"> T  </i>
   <i type="logical" name="LPARD"> F  </i>
   <i type="logical" name="LVTOT"> F  </i>
   <i type="logical" name="LVHAR"> F  </i>
   <i type="logical" name="LELF"> F  </i>
   <i type="logical" name="LOPTICS"> F  </i>
   <v name="STM">      0.00000000      0.00000000      0.00000000      0.00000000      0.00000000      0.00000000      0.00000000</v>
  </separator>
  <separator name="performance" >
   <i type="int" name="NPAR">    24</i>
   <i type="int" name="NSIM">     4</i>
   <i type="int" name="NBLK">    -1</i>
   <i type="logical" name="LPLANE"> T  </i>
   <i type="logical" name="LSCALAPACK"> T  </i>
   <i type="logical" name="LSCAAWARE"> F  </i>
   <i type="logical" name="LSCALU"> F  </i>
   <i type="logical" name="LASYNC"> F  </i>
   <i type="logical" name="LORBITALREAL"> F  </i>
  </separator>
  <separator name="miscellaneous" >
   <i type="int" name="IDIOT">     3</i>
   <i type="int" name="PHON_NSTRUCT">    -1</i>
   <i type="logical" name="LMUSIC"> F  </i>
   <v name="POMASS">     26.98100000</v>
   <v name="DARWINR">      0.00000000</v>
   <v name="DARWINV">      1.00000000</v>
   <i type="logical" name="LCORR"> T  </i>
  </separator>
  <i type="logical" name="GGA_COMPAT"> T  </i>
  <i type="logical" name="LBERRY"> F  </i>
  <i type="int" name="ICORELEVEL">     0</i>
  <i type="logical" name="LDAU"> F  </i>
  <i type="int" name="I_CONSTRAINED_M">     0</i>
  <separator name="electronic exchange-correlation" >
   <i type="string" name="GGA">--</i>
   <i type="int" name="VOSKOWN">     0</i>
   <i type="logical" name="LHFCALC"> F  </i>
   <i type="string" name="PRECFOCK"></i>
   <i type="logical" name="LSYMGRAD"> F  </i>
   <i type="logical" name="LHFONE"> F  </i>
   <i type="logical" name="LRHFCALC"> F  </i>
   <i type="logical" name="LTHOMAS"> F  </i>
   <i type="logical" name="LMODELHF"> F  </i>
   <i type="logical" name="LFOCKACE"> F  </i>
   <i name="ENCUT4O">     -1.00000000</i>
   <i type="int" name="EXXOEP">     0</i>
   <i type="int" name="FOURORBIT">     0</i>
   <i name="AEXX">      0.00000000</i>
   <i name="HFALPHA">      0.00000000</i>
   <i name="MCALPHA">      0.00000000</i>
   <i name="ALDAX">      1.00000000</i>
   <i name="AGGAX">      1.00000000</i>
   <i name="ALDAC">      1.00000000</i>
   <i name="AGGAC">      1.00000000</i>
   <i type="int" name="NKREDX">     1</i>
   <i type="int" name="NKREDY">     1</i>
   <i type="int" name="NKREDZ">     1</i>
   <i type="logical" name="SHIFTRED"> F  </i>
   <i type="logical" name="ODDONLY"> F  </i>
   <i type="logical" name="EVENONLY"> F  </i>
   <i type="int" name="LMAXFOCK">     0</i>
   <i type="int" name="NMAXFOCKAE">     0</i>
   <i type="logical" name="LFOCKAEDFT"> F  </i>
   <i name="HFSCREEN">      0.00000000</i>
   <i name="HFSCREENC">      0.00000000</i>
   <i type="int" name="NBANDSGWLOW">     0</i>
  </separator>
  <separator name="vdW DFT" >
   <i type="logical" name="LUSE_VDW"> F  </i>
   <i name="Zab_VDW">     -0.84910000</i>
   <i name="PARAM1">      0.12340000</i>
   <i name="PARAM2">      1.00000000</i>
   <i name="PARAM3">      0.00000000</i>
  </separator>
  <separator name="model GW" >
   <i type="int" name="MODEL_GW">     0</i>
   <i name="MODEL_EPS0">      9.58581606</i>
   <i name="MODEL_ALPHA">      1.00000000</i>
  </separator>
  <separator name="linear response parameters" >
   <i type="logical" name="LEPSILON"> F  </i>
   <i type="logical" name="LRPA"> F  </i>
   <i type="logical" name="LNABLA"> F  </i>
   <i type="logical" name="LVEL"> F  </i>
   <i name="CSHIFT">      0.10000000</i>
   <i name="OMEGAMAX">     -1.00000000</i>
   <i name="DEG_THRESHOLD">      0.00200000</i>
   <i name="RTIME">     -0.10000000</i>
   <i name="WPLASMAI">      0.00000000</i>
   <v name="DFIELD">      0.00000000      0.00000000      0.00000000</v>
   <v name="WPLASMA">      0.00000000      0.00000000      0.00000000      0.00000000      0.00000000      0.00000000      0.00000000      0.00000000      0.00000000</v>
  </separator>
  <separator name="orbital magnetization" >
   <i type="logical" name="NUCIND"> F  </i>
   <v name="MAGPOS">      0.00000000      0.00000000      0.00000000</v>
   <i type="logical" name="LNICSALL"> T  </i>
   <i type="logical" name="ORBITALMAG"> F  </i>
   <i type="logical" name="LMAGBLOCH"> F  </i>
   <i type="logical" name="LCHIMAG"> F  </i>
   <i type="logical" name="LGAUGE"> T  </i>
   <i type="int" name="MAGATOM">     0</i>
   <v name="MAGDIPOL">      0.00000000      0.00000000      0.00000000</v>
   <v name="AVECCONST">      0.00000000      0.00000000      0.00000000</v>
  </separator>
  <separator name="response functions" >
   <i type="logical" name="LFINITE_TEMPERATURE"> F  </i>
   <i type="logical" name="LADDER"> F  </i>
   <i type="logical" name="LRPAFORCE"> F  </i>
   <i type="logical" name="LFXC"> F  </i>
   <i type="logical" name="LHARTREE"> T  </i>
   <i type="int" name="IBSE">     0</i>
   <v type="int" name="KPOINT">    -1     0     0     0</v>
   <i type="logical" name="LTCTC"> F  </i>
   <i type="logical" name="LTCTE"> F  </i>
   <i type="logical" name="LTETE"> F  </i>
   <i type="logical" name="LTRIPLET"> F  </i>
   <i type="logical" name="LFXCEPS"> F  </i>
   <i type="logical" name="LFXHEG"> F  </i>
   <i type="int" name="NATURALO">     2</i>
   <i type="logical" name="LHOLEGF"> F  </i>
   <i type="logical" name="L2ORDER"> F  </i>
   <i type="logical" name="LDMP1"> F  </i>
   <i type="logical" name="LMP2LT"> F  </i>
   <i type="logical" name="LSMP2LT"> F  </i>
   <i type="logical" name="LGWLF"> F  </i>
   <i name="ENCUTGW">     -2.00000000</i>
   <i name="ENCUTGWSOFT">     -2.00000000</i>
   <i name="ENCUTLF">     -1.00000000</i>
   <i type="logical" name="LESF_SPLINES"> F  </i>
   <i type="int" name="LMAXMP2">    -1</i>
   <i name="SCISSOR">      0.00000000</i>
   <i type="int" name="NOMEGA">     0</i>
   <i type="int" name="NOMEGAR">     0</i>
   <i type="int" name="NBANDSGW">    -1</i>
   <i type="int" name="NBANDSO">    -1</i>
   <i type="int" name="NBANDSV">    -1</i>
   <i type="int" name="NELMGW">     1</i>
   <i type="int" name="NELMHF">     1</i>
   <i type="int" name="DIM">     3</i>
   <i type="int" name="IESPILON">     4</i>
   <i type="int" name="ANTIRES">     0</i>
   <i name="OMEGAMAX">    -30.00000000</i>
   <i name="OMEGAMIN">    -30.00000000</i>
   <i name="OMEGATL">   -200.00000000</i>
   <i type="int" name="OMEGAGRID">     0</i>
   <i name="CSHIFT">     -0.10000000</i>
   <i type="logical" name="LSELFENERGY"> F  </i>
   <i type="logical" name="LSPECTRAL"> F  </i>
   <i type="logical" name="LSPECTRALGW"> F  </i>
   <i type="logical" name="LSINGLES"> F  </i>
   <i type="logical" name="LFERMIGW"> F  </i>
   <i type="logical" name="ODDONLYGW"> F  </i>
   <i type="logical" name="EVENONLYGW"> F  </i>
   <i type="int" name="NKREDLFX">     1</i>
   <i type="int" name="NKREDLFY">     1</i>
   <i type="int" name="NKREDLFZ">     1</i>
   <i type="int" name="MAXMEM">  2800</i>
   <i type="int" name="TELESCOPE">     0</i>
   <i type="int" name="NTAUPAR">    -1</i>
   <i type="int" name="NOMEGAPAR">    -1</i>
   <i name="DAMP_NEWTON">      0.80000001</i>
   <i name="LAMBDA">      1.00000000</i>
  </separator>
  <separator name="External order field" >
   <i name="OFIELD_KAPPA">      0.00000000</i>
   <v name="OFIELD_K">      0.00000000      0.00000000      0.00000000</v>
   <i name="OFIELD_Q6_NEAR">      0.00000000</i>
   <i name="OFIELD_Q6_FAR">      0.00000000</i>
   <i name="OFIELD_A">      0.00000000</i>
  </separator>
  <separator name="optional k-points parameters" >
   <i type="int" name="KPOINTS_OPT_MODE">     1</i>
   <i type="logical" name="LKPOINTS_OPT"> F  </i>
  </separator>
 </parameters>
 <atominfo>
  <atoms>      32 </atoms>
  <types>       1 </types>
  <array name="atoms" >
   <dimension dim="1">ion</dimension>
   <field type="string">element</field>
   <field type="int">atomtype</field>
   <set>
    <rc><c>Al</c><c>   1</c></rc>
    <rc><c>Al</c><c>   1</c></rc>
    <rc><c>Al</c><c>   1</c></rc>
    <rc><c>Al</c><c>   1</c></rc>
    <rc><c>Al</c><c>   1</c></rc>
    <rc><c>Al</c><c>   1</c></rc>
    <rc><c>Al</c><c>   1</c></rc>
    <rc><c>Al</c><c>   1</c></rc>
    <rc><c>Al</c><c>   1</c></rc>
    <rc><c>Al</c><c>   1</c></rc>
    <rc><c>Al</c><c>   1</c></rc>
    <rc><c>Al</c><c>   1</c></rc>
    <rc><c>Al</c><c>   1</c></rc>
    <rc><c>Al</c><c>   1</c></rc>
    <rc><c>Al</c><c>   1</c></rc>
    <rc><c>Al</c><c>   1</c></rc>
    <rc><c>Al</c><c>   1</c></rc>
    <rc><c>Al</c><c>   1</c></rc>
    <rc><c>Al</c><c>   1</c></rc>
    <rc><c>Al</c><c>   1</c></rc>
    <rc><c>Al</c><c>   1</c></rc>
    <rc><c>Al</c><c>   1</c></rc>
    <rc><c>Al</c><c>   1</c></rc>
    <rc><c>Al</c><c>   1</c></rc>
    <rc><c>Al</c><c>   1</c></rc>
    <rc><c>Al</c><c>   1</c></rc>
    <rc><c>Al</c><c>   1</c></rc>
    <rc><c>Al</c><c>   1</c></rc>
    <rc><c>Al</c><c>   1</c></rc>
    <rc><c>Al</c><c>   1</c></rc>
    <rc><c>Al</c><c>   1</c></rc>
    <rc><c>Al</c><c>   1</c></rc>
   </set>
  </array>
  <array name="atomtypes" >
   <dimension dim="1">type</dimension>
   <field type="int">atomspertype</field>
   <field type="string">element</field>
   <field>mass</field>
   <field>valence</field>
   <field type="string">pseudopotential</field>
   <set>
    <rc><c>  32</c><c>Al</c><c>     26.98100000</c><c>      3.00000000</c><c>  PAW_PBE Al 04Jan2001                  </c></rc>
   </set>
  </array>
 </atominfo>
 <structure name="initialpos" >
  <crystal>
   <varray name="basis" >
    <v>       7.99605807       0.00000000       0.00000000 </v>
    <v>       0.00000000       7.99605807       0.00000000 </v>
    <v>       0.00000000       0.00000000       7.99605807 </v>
   </varray>
   <i name="volume">    511.24352321 </i>
   <varray name="rec_basis" >
    <v>       0.12506162       0.00000000       0.00000000 </v>
    <v>       0.00000000       0.12506162       0.00000000 </v>
    <v>       0.00000000       0.00000000       0.12506162 </v>
   </varray>
  </crystal>
  <varray name="positions" >
   <v>       0.00125062       0.00000000       0.00000000 </v>
   <v>       0.50000000       0.00000000       0.00000000 </v>
   <v>       0.00000000       0.50000000       0.00000000 </v>
   <v>       0.50000000       0.50000000       0.00000000 </v>
   <v>       0.00000000       0.00000000       0.50000000 </v>
   <v>       0.50000000       0.00000000       0.50000000 </v>
   <v>       0.00000000       0.50000000       0.50000000 </v>
   <v>       0.50000000       0.50000000       0.50000000 </v>
   <v>       0.00000000       0.25000000       0.25000000 </v>
   <v>       0.50000000       0.25000000       0.25000000 </v>
   <v>       0.00000000       0.75000000       0.25000000 </v>
   <v>       0.50000000       0.75000000       0.25000000 </v>
   <v>       0.00000000       0.25000000       0.75000000 </v>
   <v>       0.50000000       0.25000000       0.75000000 </v>
   <v>       0.00000000       0.75000000       0.75000000 </v>
   <v>       0.50000000       0.75000000       0.75000000 </v>
   <v>       0.25000000       0.00000000       0.25000000 </v>
   <v>       0.75000000       0.00000000       0.25000000 </v>
   <v>       0.25000000       0.50000000       0.25000000 </v>
   <v>       0.75000000       0.50000000       0.25000000 </v>
   <v>       0.25000000       0.00000000       0.75000000 </v>
   <v>       0.75000000       0.00000000       0.75000000 </v>
   <v>       0.25000000       0.50000000       0.75000000 </v>
   <v>       0.75000000       0.50000000       0.75000000 </v>
   <v>       0.25000000       0.25000000       0.00000000 </v>
   <v>       0.75000000       0.25000000       0.00000000 </v>
   <v>       0.25000000       0.75000000       0.00000000 </v>
   <v>       0.75000000       0.75000000       0.00000000 </v>
   <v>       0.25000000       0.25000000       0.50000000 </v>
   <v>       0.75000000       0.25000000       0.50000000 </v>
   <v>       0.25000000       0.75000000       0.50000000 </v>
   <v>       0.75000000       0.75000000       0.50000000 </v>
  </varray>
 </structure>
 <calculation>
  <scstep>
   <time name="dav">    4.13    4.15</time>
   <time name="total">    4.14    4.17</time>
   <energy>
    <i name="alphaZ">     -6.72755973 </i>
    <i name="ewald">  -2377.92770723 </i>
    <i name="hartreedc">     -2.89407106 </i>
    <i name="XCdc">   -837.80312517 </i>
    <i name="pawpsdc">   2118.40502803 </i>
    <i name="pawaedc">  -1095.85986421 </i>
    <i name="eentropy">     -0.01042858 </i>
    <i name="bandstr">    574.23339886 </i>
    <i name="atom">   1713.22093829 </i>
    <i name="e_fr_energy">     84.63660921 </i>
    <i name="e_wo_entrp">     84.64703779 </i>
    <i name="e_0_energy">     84.64182350 </i>
   </energy>
  </scstep>
  <scstep>
   <time name="dav">    4.87    4.89</time>
   <time name="total">    4.87    4.89</time>
   <energy>
    <i name="e_fr_energy">   -112.52101099 </i>
    <i name="e_wo_entrp">   -112.50710995 </i>
    <i name="e_0_energy">   -112.51406047 </i>
   </energy>
  </scstep>
  <scstep>
   <time name="dav">    5.22    5.25</time>
   <time name="total">    5.22    5.25</time>
   <energy>
    <i name="e_fr_energy">   -120.42659109 </i>
    <i name="e_wo_entrp">   -120.41593186 </i>
    <i name="e_0_energy">   -120.42126147 </i>
   </energy>
  </scstep>
  <scstep>
   <time name="dav">    4.43    4.45</time>
   <time name="total">    4.43    4.46</time>
   <energy>
    <i name="e_fr_energy">   -120.51943660 </i>
    <i name="e_wo_entrp">   -120.50897831 </i>
    <i name="e_0_energy">   -120.51420745 </i>
   </energy>
  </scstep>
  <scstep>
   <time name="dav">    5.14    5.17</time>
   <time name="total">    5.22    5.25</time>
   <energy>
    <i name="e_fr_energy">   -120.52049982 </i>
    <i name="e_wo_entrp">   -120.51004439 </i>
    <i name="e_0_energy">   -120.51527210 </i>
   </energy>
  </scstep>
  <scstep>
   <time name="dav">    4.64    4.66</time>
   <time name="total">    4.72    4.75</time>
   <energy>
    <i name="e_fr_energy">   -120.09396272 </i>
    <i name="e_wo_entrp">   -120.08349330 </i>
    <i name="e_0_energy">   -120.08872801 </i>
   </energy>
  </scstep>
  <scstep>
   <time name="dav">    4.63    4.65</time>
   <time name="total">    4.72    4.77</time>
   <energy>
    <i name="e_fr_energy">   -119.78422210 </i>
    <i name="e_wo_entrp">   -119.77356417 </i>
    <i name="e_0_energy">   -119.77889313 </i>
   </energy>
  </scstep>
  <scstep>
   <time name="dav">    4.98    5.01</time>
   <time name="total">    5.07    5.10</time>
   <energy>
    <i name="e_fr_energy">   -119.78134491 </i>
    <i name="e_wo_entrp">   -119.77065266 </i>
    <i name="e_0_energy">   -119.77599879 </i>
   </energy>
  </scstep>
  <scstep>
   <time name="dav">    3.83    3.85</time>
   <time name="total">    3.85    3.90</time>
   <energy>
    <i name="alphaZ">     -6.72755973 </i>
    <i name="ewald">  -2377.92770723 </i>
    <i name="hartreedc">     -3.53956630 </i>
    <i name="XCdc">   -834.07127390 </i>
    <i name="pawpsdc">   4783.33634319 </i>
    <i name="pawaedc">  -3761.36959857 </i>
    <i name="eentropy">     -0.01069784 </i>
    <i name="bandstr">    367.30786872 </i>
    <i name="atom">   1713.22093829 </i>
    <i name="e_fr_energy">   -119.78125336 </i>
    <i name="e_wo_entrp">   -119.77055552 </i>
    <i name="e_0_energy">   -119.77590444 </i>
   </energy>
  </scstep>
  <structure>
   <crystal>
    <varray name="basis" >
     <v>       7.99605807       0.00000000       0.00000000 </v>
     <v>       0.00000000       7.99605807       0.00000000 </v>
     <v>       0.00000000       0.00000000       7.99605807 </v>
    </varray>
    <i name="volume">    511.24352321 </i>
    <varray name="rec_basis" >
     <v>       0.12506162       0.00000000       0.00000000 </v>
     <v>       0.00000000       0.12506162       0.00000000 </v>
     <v>       0.00000000       0.00000000       0.12506162 </v>
    </varray>
   </crystal>
   <varray name="positions" >
    <v>       0.00125062       0.00000000       0.00000000 </v>
    <v>       0.50000000       0.00000000       0.00000000 </v>
    <v>       0.00000000       0.50000000       0.00000000 </v>
    <v>       0.50000000       0.50000000       0.00000000 </v>
    <v>       0.00000000       0.00000000       0.50000000 </v>
    <v>       0.50000000       0.00000000       0.50000000 </v>
    <v>       0.00000000       0.50000000       0.50000000 </v>
    <v>       0.50000000       0.50000000       0.50000000 </v>
    <v>       0.00000000       0.25000000       0.25000000 </v>
    <v>       0.50000000       0.25000000       0.25000000 </v>
    <v>       0.00000000       0.75000000       0.25000000 </v>
    <v>       0.50000000       0.75000000       0.25000000 </v>
    <v>       0.00000000       0.25000000       0.75000000 </v>
    <v>       0.50000000       0.25000000       0.75000000 </v>
    <v>       0.00000000       0.75000000       0.75000000 </v>
    <v>       0.50000000       0.75000000       0.75000000 </v>
    <v>       0.25000000       0.00000000       0.25000000 </v>
    <v>       0.75000000       0.00000000       0.25000000 </v>
    <v>       0.25000000       0.50000000       0.25000000 </v>
    <v>       0.75000000       0.50000000       0.25000000 </v>
    <v>       0.25000000       0.00000000       0.75000000 </v>
    <v>       0.75000000       0.00000000       0.75000000 </v>
    <v>       0.25000000       0.50000000       0.75000000 </v>
    <v>       0.75000000       0.50000000       0.75000000 </v>
    <v>       0.25000000       0.25000000       0.00000000 </v>
    <v>       0.75000000       0.25000000       0.00000000 </v>
    <v>       0.25000000       0.75000000       0.00000000 </v>
    <v>       0.75000000       0.75000000       0.00000000 </v>
    <v>       0.25000000       0.25000000       0.50000000 </v>
    <v>       0.75000000       0.25000000       0.50000000 </v>
    <v>       0.25000000       0.75000000       0.50000000 </v>
    <v>       0.75000000       0.75000000       0.50000000 </v>
   </varray>
  </structure>
  <varray name="forces" >
   <v>      -0.05257349       0.00000000       0.00000000 </v>
   <v>       0.00260714       0.00000000       0.00000000 </v>
   <v>      -0.00054176       0.00000000       0.00000000 </v>
   <v>       0.00085831       0.00000000       0.00000000 </v>
   <v>      -0.00054176       0.00000000       0.00000000 </v>
   <v>       0.00085831       0.00000000       0.00000000 </v>
   <v>      -0.00017868       0.00000000       0.00000000 </v>
   <v>      -0.00102508       0.00000000       0.00000000 </v>
   <v>      -0.00163121      -0.00001297      -0.00001297 </v>
   <v>      -0.00017422       0.00000623       0.00000623 </v>
   <v>      -0.00163121       0.00001297      -0.00001297 </v>
   <v>      -0.00017422      -0.00000623       0.00000623 </v>
   <v>      -0.00163121      -0.00001297       0.00001297 </v>
   <v>      -0.00017422       0.00000623      -0.00000623 </v>
   <v>      -0.00163121       0.00001297       0.00001297 </v>
   <v>      -0.00017422      -0.00000623      -0.00000623 </v>
   <v>       0.00705466       0.00000000       0.00747213 </v>
   <v>       0.00689647       0.00000000      -0.00719456 </v>
   <v>       0.00024428       0.00000000      -0.00000626 </v>
   <v>       0.00024427       0.00000000       0.00000165 </v>
   <v>       0.00705466       0.00000000      -0.00747213 </v>
   <v>       0.00689647       0.00000000       0.00719456 </v>
   <v>       0.00024428       0.00000000       0.00000626 </v>
   <v>       0.00024427       0.00000000      -0.00000165 </v>
   <v>       0.00705466       0.00747213       0.00000000 </v>
   <v>       0.00689647      -0.00719456       0.00000000 </v>
   <v>       0.00705466      -0.00747213       0.00000000 </v>
   <v>       0.00689647       0.00719456       0.00000000 </v>
   <v>       0.00024428      -0.00000626       0.00000000 </v>
   <v>       0.00024427       0.00000165       0.00000000 </v>
   <v>       0.00024428       0.00000626       0.00000000 </v>
   <v>       0.00024427      -0.00000165       0.00000000 </v>
  </varray>
  <varray name="stress" >
   <v>      25.05554696       0.00000000       0.00000000 </v>
   <v>       0.00000000      25.05609875       0.00000000 </v>
   <v>       0.00000000       0.00000000      25.05609875 </v>
  </varray>
  <energy>
   <i name="e_fr_energy">   -119.78125336 </i>
   <i name="e_wo_entrp">   -119.77055552 </i>
   <i name="e_0_energy">   -119.77590444 </i>
  </energy>
  <time name="totalsc">   50.28   51.18</time>
  <eigenvalues>
   <array>
    <dimension dim="1">band</dimension>
    <dimension dim="2">kpoint</dimension>
    <dimension dim="3">spin</dimension>
    <field>eigene</field>
    <field>occ</field>
    <set>
     <set comment="spin 1">
      <set comment="kpoint 1">
       <r>   -3.0180    1.0000 </r>
       <r>   -0.7261    1.0000 </r>
       <r>   -0.7222    1.0000 </r>
       <r>   -0.7222    1.0000 </r>
       <r>   -0.7222    1.0000 </r>
       <r>   -0.7222    1.0000 </r>
       <r>   -0.7184    1.0000 </r>
       <r>    1.5292    1.0000 </r>
       <r>    1.5337    1.0000 </r>
       <r>    1.5337    1.0000 </r>
       <r>    1.5354    1.0000 </r>
       <r>    1.5356    1.0000 </r>
       <r>    1.5356    1.0000 </r>
       <r>    1.5356    1.0000 </r>
       <r>    1.5356    1.0000 </r>
       <r>    1.5358    1.0000 </r>
       <r>    1.5376    1.0000 </r>
       <r>    1.5376    1.0000 </r>
       <r>    1.5421    1.0000 </r>
       <r>    3.6187    1.0000 </r>
       <r>    3.6187    1.0000 </r>
       <r>    3.6187    1.0000 </r>
       <r>    3.6187    1.0000 </r>
       <r>    3.9178    1.0000 </r>
       <r>    3.9178    1.0000 </r>
       <r>    3.9178    1.0000 </r>
       <r>    3.9178    1.0000 </r>
       <r>    5.3394    1.0000 </r>
       <r>    5.3394    1.0000 </r>
       <r>    5.3394    1.0000 </r>
       <r>    6.7331    1.0000 </r>
       <r>    6.7331    1.0000 </r>
       <r>    6.7332    1.0000 </r>
       <r>    7.4498    1.0000 </r>
       <r>    7.4498    1.0000 </r>
       <r>    7.4543    1.0000 </r>
       <r>    7.4543    1.0000 </r>
       <r>    7.4544    1.0000 </r>
       <r>    7.4544    1.0000 </r>
       <r>    7.4544    1.0000 </r>
       <r>    7.4544    1.0000 </r>
       <r>    7.4545    1.0000 </r>
       <r>    7.4545    1.0000 </r>
       <r>    7.4590    1.0000 </r>
       <r>    7.4590    1.0000 </r>
       <r>    8.4491    0.0013 </r>
       <r>    8.4534    0.0009 </r>
       <r>    8.4534    0.0009 </r>
       <r>    8.4534    0.0009 </r>
       <r>    8.4534    0.0009 </r>
       <r>    8.4577    0.0006 </r>
       <r>    9.5731    0.0000 </r>
       <r>    9.5731    0.0000 </r>
       <r>    9.5747    0.0000 </r>
       <r>    9.5771    0.0000 </r>
       <r>    9.5773    0.0000 </r>
       <r>    9.5773    0.0000 </r>
       <r>    9.5773    0.0000 </r>
       <r>    9.5773    0.0000 </r>
       <r>    9.5775    0.0000 </r>
       <r>    9.5799    0.0000 </r>
       <r>    9.5815    0.0000 </r>
       <r>    9.5815    0.0000 </r>
       <r>    9.6293    0.0000 </r>
       <r>    9.6305    0.0000 </r>
       <r>    9.6305    0.0000 </r>
       <r>    9.6306    0.0000 </r>
       <r>    9.6306    0.0000 </r>
       <r>    9.6316    0.0000 </r>
       <r>   11.1918    0.0000 </r>
       <r>   11.1939    0.0000 </r>
       <r>   11.1946    0.0000 </r>
      </set>
      <set comment="kpoint 2">
       <r>   -2.9819    1.0000 </r>
       <r>   -1.2568    1.0000 </r>
       <r>   -0.6867    1.0000 </r>
       <r>   -0.6867    1.0000 </r>
       <r>   -0.6867    1.0000 </r>
       <r>   -0.6867    1.0000 </r>
       <r>   -0.1192    1.0000 </r>
       <r>    1.0099    1.0000 </r>
       <r>    1.0099    1.0000 </r>
       <r>    1.0099    1.0000 </r>
       <r>    1.0099    1.0000 </r>
       <r>    1.5706    1.0000 </r>
       <r>    1.5706    1.0000 </r>
       <r>    1.5706    1.0000 </r>
       <r>    1.5706    1.0000 </r>
       <r>    2.1287    1.0000 </r>
       <r>    2.1287    1.0000 </r>
       <r>    2.1287    1.0000 </r>
       <r>    2.1288    1.0000 </r>
       <r>    3.2289    1.0000 </r>
       <r>    3.2289    1.0000 </r>
       <r>    3.2289    1.0000 </r>
       <r>    3.2289    1.0000 </r>
       <r>    4.3744    1.0000 </r>
       <r>    4.3744    1.0000 </r>
       <r>    4.3744    1.0000 </r>
       <r>    4.3744    1.0000 </r>
       <r>    4.7648    1.0000 </r>
       <r>    5.3723    1.0000 </r>
       <r>    5.3723    1.0000 </r>
       <r>    6.7677    1.0000 </r>
       <r>    6.7678    1.0000 </r>
       <r>    6.8979    1.0000 </r>
       <r>    6.8979    1.0000 </r>
       <r>    6.8979    1.0000 </r>
       <r>    6.8979    1.0000 </r>
       <r>    6.9579    1.0000 </r>
       <r>    6.9579    1.0000 </r>
       <r>    7.3699    1.0000 </r>
       <r>    7.4875    1.0000 </r>
       <r>    7.4875    1.0000 </r>
       <r>    7.4875    1.0000 </r>
       <r>    7.4875    1.0000 </r>
       <r>    8.0176    1.0000 </r>
       <r>    8.0176    1.0000 </r>
       <r>    8.2668    0.9841 </r>
       <r>    8.2668    0.9841 </r>
       <r>    8.7822    0.0000 </r>
       <r>    8.7822    0.0000 </r>
       <r>    8.7822    0.0000 </r>
       <r>    8.7822    0.0000 </r>
       <r>    9.0699    0.0000 </r>
       <r>    9.0699    0.0000 </r>
       <r>    9.0703    0.0000 </r>
       <r>    9.0704    0.0000 </r>
       <r>    9.0793    0.0000 </r>
       <r>    9.0794    0.0000 </r>
       <r>    9.0798    0.0000 </r>
       <r>    9.0798    0.0000 </r>
       <r>    9.8787    0.0000 </r>
       <r>    9.8788    0.0000 </r>
       <r>    9.9538    0.0000 </r>
       <r>    9.9538    0.0000 </r>
       <r>    9.9539    0.0000 </r>
       <r>    9.9539    0.0000 </r>
       <r>   10.1420    0.0000 </r>
       <r>   10.1420    0.0000 </r>
       <r>   10.1421    0.0000 </r>
       <r>   10.1421    0.0000 </r>
       <r>   10.6915    0.0000 </r>
       <r>   10.6915    0.0000 </r>
       <r>   10.6915    0.0000 </r>
      </set>
      <set comment="kpoint 3">
       <r>   -2.9819    1.0000 </r>
       <r>   -1.2568    1.0000 </r>
       <r>   -0.6897    1.0000 </r>
       <r>   -0.6867    1.0000 </r>
       <r>   -0.6867    1.0000 </r>
       <r>   -0.6837    1.0000 </r>
       <r>   -0.1192    1.0000 </r>
       <r>    1.0069    1.0000 </r>
       <r>    1.0099    1.0000 </r>
       <r>    1.0099    1.0000 </r>
       <r>    1.0129    1.0000 </r>
       <r>    1.5684    1.0000 </r>
       <r>    1.5694    1.0000 </r>
       <r>    1.5719    1.0000 </r>
       <r>    1.5729    1.0000 </r>
       <r>    2.1257    1.0000 </r>
       <r>    2.1287    1.0000 </r>
       <r>    2.1287    1.0000 </r>
       <r>    2.1318    1.0000 </r>
       <r>    3.2267    1.0000 </r>
       <r>    3.2277    1.0000 </r>
       <r>    3.2301    1.0000 </r>
       <r>    3.2310    1.0000 </r>
       <r>    4.3722    1.0000 </r>
       <r>    4.3732    1.0000 </r>
       <r>    4.3756    1.0000 </r>
       <r>    4.3766    1.0000 </r>
       <r>    4.7648    1.0000 </r>
       <r>    5.3723    1.0000 </r>
       <r>    5.3724    1.0000 </r>
       <r>    6.7677    1.0000 </r>
       <r>    6.7678    1.0000 </r>
       <r>    6.8945    1.0000 </r>
       <r>    6.8979    1.0000 </r>
       <r>    6.8979    1.0000 </r>
       <r>    6.9011    1.0000 </r>
       <r>    6.9579    1.0000 </r>
       <r>    6.9580    1.0000 </r>
       <r>    7.3699    1.0000 </r>
       <r>    7.4847    1.0000 </r>
       <r>    7.4875    1.0000 </r>
       <r>    7.4876    1.0000 </r>
       <r>    7.4903    1.0000 </r>
       <r>    8.0176    1.0000 </r>
       <r>    8.0176    1.0000 </r>
       <r>    8.2668    0.9841 </r>
       <r>    8.2668    0.9841 </r>
       <r>    8.7794    0.0000 </r>
       <r>    8.7822    0.0000 </r>
       <r>    8.7822    0.0000 </r>
       <r>    8.7850    0.0000 </r>
       <r>    9.0675    0.0000 </r>
       <r>    9.0689    0.0000 </r>
       <r>    9.0714    0.0000 </r>
       <r>    9.0728    0.0000 </r>
       <r>    9.0767    0.0000 </r>
       <r>    9.0793    0.0000 </r>
       <r>    9.0798    0.0000 </r>
       <r>    9.0824    0.0000 </r>
       <r>    9.8787    0.0000 </r>
       <r>    9.8788    0.0000 </r>
       <r>    9.9525    0.0000 </r>
       <r>    9.9538    0.0000 </r>
       <r>    9.9539    0.0000 </r>
       <r>    9.9552    0.0000 </r>
       <r>   10.1391    0.0000 </r>
       <r>   10.1420    0.0000 </r>
       <r>   10.1421    0.0000 </r>
       <r>   10.1450    0.0000 </r>
       <r>   10.6894    0.0000 </r>
       <r>   10.6915    0.0000 </r>
       <r>   10.6923    0.0000 </r>
      </set>
      <set comment="kpoint 4">
       <r>   -2.8734    1.0000 </r>
       <r>   -1.7218    1.0000 </r>
       <r>   -0.5801    1.0000 </r>
       <r>   -0.5800    1.0000 </r>
       <r>   -0.5800    1.0000 </r>
       <r>   -0.5800    1.0000 </r>
       <r>    0.5492    1.0000 </r>
       <r>    0.5525    1.0000 </r>
       <r>    0.5525    1.0000 </r>
       <r>    0.5525    1.0000 </r>
       <r>    0.5546    1.0000 </r>
       <r>    1.6755    1.0000 </r>
       <r>    1.6755    1.0000 </r>
       <r>    1.6755    1.0000 </r>
       <r>    1.6756    1.0000 </r>
       <r>    2.7841    1.0000 </r>
       <r>    2.7859    1.0000 </r>
       <r>    2.7859    1.0000 </r>
       <r>    2.7869    1.0000 </r>
       <r>    2.7878    1.0000 </r>
       <r>    2.7888    1.0000 </r>
       <r>    2.7888    1.0000 </r>
       <r>    2.7907    1.0000 </r>
       <r>    3.8531    1.0000 </r>
       <r>    5.0165    1.0000 </r>
       <r>    5.0165    1.0000 </r>
       <r>    5.0165    1.0000 </r>
       <r>    5.0165    1.0000 </r>
       <r>    5.4713    1.0000 </r>
       <r>    5.4713    1.0000 </r>
       <r>    6.0180    1.0000 </r>
       <r>    6.0180    1.0000 </r>
       <r>    6.0180    1.0000 </r>
       <r>    6.0180    1.0000 </r>
       <r>    6.5280    1.0000 </r>
       <r>    6.5280    1.0000 </r>
       <r>    6.8714    1.0000 </r>
       <r>    6.8714    1.0000 </r>
       <r>    7.5869    1.0000 </r>
       <r>    7.5869    1.0000 </r>
       <r>    7.5869    1.0000 </r>
       <r>    7.5869    1.0000 </r>
       <r>    7.9190    1.0000 </r>
       <r>    7.9191    1.0000 </r>
       <r>    8.2096    0.9999 </r>
       <r>    8.2096    0.9999 </r>
       <r>    8.2096    0.9999 </r>
       <r>    8.2096    0.9999 </r>
       <r>    8.4683    0.0002 </r>
       <r>    8.6453    0.0000 </r>
       <r>    8.6453    0.0000 </r>
       <r>    8.6479    0.0000 </r>
       <r>    8.6479    0.0000 </r>
       <r>    8.6501    0.0000 </r>
       <r>    8.6501    0.0000 </r>
       <r>    9.0656    0.0000 </r>
       <r>    9.0656    0.0000 </r>
       <r>    9.0656    0.0000 </r>
       <r>    9.0656    0.0000 </r>
       <r>   10.2501    0.0000 </r>
       <r>   10.2501    0.0000 </r>
       <r>   10.2501    0.0000 </r>
       <r>   10.2501    0.0000 </r>
       <r>   10.4104    0.0000 </r>
       <r>   10.4104    0.0000 </r>
       <r>   10.7735    0.0000 </r>
       <r>   10.7735    0.0000 </r>
       <r>   10.7735    0.0000 </r>
       <r>   10.7735    0.0000 </r>
       <r>   10.8371    0.0000 </r>
       <r>   10.8371    0.0000 </r>
       <r>   10.8371    0.0000 </r>
      </set>
      <set comment="kpoint 5">
       <r>   -2.8734    1.0000 </r>
       <r>   -1.7218    1.0000 </r>
       <r>   -0.5830    1.0000 </r>
       <r>   -0.5800    1.0000 </r>
       <r>   -0.5800    1.0000 </r>
       <r>   -0.5770    1.0000 </r>
       <r>    0.5493    1.0000 </r>
       <r>    0.5514    1.0000 </r>
       <r>    0.5525    1.0000 </r>
       <r>    0.5525    1.0000 </r>
       <r>    0.5556    1.0000 </r>
       <r>    1.6733    1.0000 </r>
       <r>    1.6743    1.0000 </r>
       <r>    1.6768    1.0000 </r>
       <r>    1.6778    1.0000 </r>
       <r>    2.7839    1.0000 </r>
       <r>    2.7855    1.0000 </r>
       <r>    2.7856    1.0000 </r>
       <r>    2.7876    1.0000 </r>
       <r>    2.7878    1.0000 </r>
       <r>    2.7884    1.0000 </r>
       <r>    2.7889    1.0000 </r>
       <r>    2.7912    1.0000 </r>
       <r>    3.8531    1.0000 </r>
       <r>    5.0143    1.0000 </r>
       <r>    5.0153    1.0000 </r>
       <r>    5.0178    1.0000 </r>
       <r>    5.0188    1.0000 </r>
       <r>    5.4713    1.0000 </r>
       <r>    5.4713    1.0000 </r>
       <r>    6.0148    1.0000 </r>
       <r>    6.0180    1.0000 </r>
       <r>    6.0180    1.0000 </r>
       <r>    6.0212    1.0000 </r>
       <r>    6.5280    1.0000 </r>
       <r>    6.5280    1.0000 </r>
       <r>    6.8714    1.0000 </r>
       <r>    6.8714    1.0000 </r>
       <r>    7.5841    1.0000 </r>
       <r>    7.5869    1.0000 </r>
       <r>    7.5869    1.0000 </r>
       <r>    7.5897    1.0000 </r>
       <r>    7.9190    1.0000 </r>
       <r>    7.9191    1.0000 </r>
       <r>    8.2071    0.9999 </r>
       <r>    8.2084    0.9999 </r>
       <r>    8.2109    0.9999 </r>
       <r>    8.2121    0.9999 </r>
       <r>    8.4683    0.0002 </r>
       <r>    8.6446    0.0000 </r>
       <r>    8.6476    0.0000 </r>
       <r>    8.6476    0.0000 </r>
       <r>    8.6479    0.0000 </r>
       <r>    8.6479    0.0000 </r>
       <r>    8.6511    0.0000 </r>
       <r>    9.0630    0.0000 </r>
       <r>    9.0656    0.0000 </r>
       <r>    9.0656    0.0000 </r>
       <r>    9.0681    0.0000 </r>
       <r>   10.2477    0.0000 </r>
       <r>   10.2501    0.0000 </r>
       <r>   10.2501    0.0000 </r>
       <r>   10.2525    0.0000 </r>
       <r>   10.4104    0.0000 </r>
       <r>   10.4104    0.0000 </r>
       <r>   10.7705    0.0000 </r>
       <r>   10.7735    0.0000 </r>
       <r>   10.7735    0.0000 </r>
       <r>   10.7764    0.0000 </r>
       <r>   10.8353    0.0000 </r>
       <r>   10.8371    0.0000 </r>
       <r>   10.8385    0.0000 </r>
      </set>
      <set comment="kpoint 6">
       <r>   -2.6928    1.0000 </r>
       <r>   -2.1166    1.0000 </r>
       <r>   -0.4025    1.0000 </r>
       <r>   -0.4025    1.0000 </r>
       <r>   -0.4025    1.0000 </r>
       <r>   -0.4025    1.0000 </r>
       <r>    0.1642    1.0000 </r>
       <r>    0.1642    1.0000 </r>
       <r>    0.1642    1.0000 </r>
       <r>    0.1643    1.0000 </r>
       <r>    1.2876    1.0000 </r>
       <r>    1.8502    1.0000 </r>
       <r>    1.8502    1.0000 </r>
       <r>    1.8502    1.0000 </r>
       <r>    1.8502    1.0000 </r>
       <r>    2.4069    1.0000 </r>
       <r>    2.4069    1.0000 </r>
       <r>    2.4069    1.0000 </r>
       <r>    2.4069    1.0000 </r>
       <r>    2.9461    1.0000 </r>
       <r>    3.5110    1.0000 </r>
       <r>    3.5110    1.0000 </r>
       <r>    3.5110    1.0000 </r>
       <r>    3.5110    1.0000 </r>
       <r>    5.1354    1.0000 </r>
       <r>    5.1354    1.0000 </r>
       <r>    5.1354    1.0000 </r>
       <r>    5.1354    1.0000 </r>
       <r>    5.6362    1.0000 </r>
       <r>    5.6362    1.0000 </r>
       <r>    5.7291    1.0000 </r>
       <r>    5.7291    1.0000 </r>
       <r>    5.7291    1.0000 </r>
       <r>    5.7291    1.0000 </r>
       <r>    6.1645    1.0000 </r>
       <r>    6.1645    1.0000 </r>
       <r>    7.0427    1.0000 </r>
       <r>    7.0427    1.0000 </r>
       <r>    7.3362    1.0000 </r>
       <r>    7.3362    1.0000 </r>
       <r>    7.3362    1.0000 </r>
       <r>    7.3362    1.0000 </r>
       <r>    7.5756    1.0000 </r>
       <r>    7.5756    1.0000 </r>
       <r>    7.7526    1.0000 </r>
       <r>    7.7526    1.0000 </r>
       <r>    7.7526    1.0000 </r>
       <r>    7.7526    1.0000 </r>
       <r>    8.2830    0.9543 </r>
       <r>    8.2830    0.9543 </r>
       <r>    8.2830    0.9543 </r>
       <r>    8.2830    0.9543 </r>
       <r>    9.2923    0.0000 </r>
       <r>    9.2923    0.0000 </r>
       <r>    9.2923    0.0000 </r>
       <r>    9.2923    0.0000 </r>
       <r>    9.3444    0.0000 </r>
       <r>    9.3444    0.0000 </r>
       <r>    9.6862    0.0000 </r>
       <r>    9.8711    0.0000 </r>
       <r>    9.8711    0.0000 </r>
       <r>    9.8711    0.0000 </r>
       <r>    9.8711    0.0000 </r>
       <r>   10.9381    0.0000 </r>
       <r>   10.9381    0.0000 </r>
       <r>   11.0559    0.0000 </r>
       <r>   11.0559    0.0000 </r>
       <r>   11.4717    0.0000 </r>
       <r>   11.4717    0.0000 </r>
       <r>   11.4717    0.0000 </r>
       <r>   11.4717    0.0000 </r>
       <r>   11.9686    0.0000 </r>
      </set>
      <set comment="kpoint 7">
       <r>   -2.6928    1.0000 </r>
       <r>   -2.1166    1.0000 </r>
       <r>   -0.4055    1.0000 </r>
       <r>   -0.4025    1.0000 </r>
       <r>   -0.4025    1.0000 </r>
       <r>   -0.3995    1.0000 </r>
       <r>    0.1613    1.0000 </r>
       <r>    0.1642    1.0000 </r>
       <r>    0.1642    1.0000 </r>
       <r>    0.1672    1.0000 </r>
       <r>    1.2876    1.0000 </r>
       <r>    1.8480    1.0000 </r>
       <r>    1.8490    1.0000 </r>
       <r>    1.8514    1.0000 </r>
       <r>    1.8524    1.0000 </r>
       <r>    2.4047    1.0000 </r>
       <r>    2.4057    1.0000 </r>
       <r>    2.4082    1.0000 </r>
       <r>    2.4092    1.0000 </r>
       <r>    2.9461    1.0000 </r>
       <r>    3.5079    1.0000 </r>
       <r>    3.5110    1.0000 </r>
       <r>    3.5110    1.0000 </r>
       <r>    3.5141    1.0000 </r>
       <r>    5.1323    1.0000 </r>
       <r>    5.1354    1.0000 </r>
       <r>    5.1354    1.0000 </r>
       <r>    5.1385    1.0000 </r>
       <r>    5.6362    1.0000 </r>
       <r>    5.6362    1.0000 </r>
       <r>    5.7268    1.0000 </r>
       <r>    5.7279    1.0000 </r>
       <r>    5.7304    1.0000 </r>
       <r>    5.7314    1.0000 </r>
       <r>    6.1645    1.0000 </r>
       <r>    6.1645    1.0000 </r>
       <r>    7.0427    1.0000 </r>
       <r>    7.0427    1.0000 </r>
       <r>    7.3338    1.0000 </r>
       <r>    7.3349    1.0000 </r>
       <r>    7.3374    1.0000 </r>
       <r>    7.3386    1.0000 </r>
       <r>    7.5756    1.0000 </r>
       <r>    7.5756    1.0000 </r>
       <r>    7.7498    1.0000 </r>
       <r>    7.7526    1.0000 </r>
       <r>    7.7527    1.0000 </r>
       <r>    7.7554    1.0000 </r>
       <r>    8.2802    0.9615 </r>
       <r>    8.2830    0.9543 </r>
       <r>    8.2830    0.9542 </r>
       <r>    8.2859    0.9459 </r>
       <r>    9.2898    0.0000 </r>
       <r>    9.2923    0.0000 </r>
       <r>    9.2923    0.0000 </r>
       <r>    9.2947    0.0000 </r>
       <r>    9.3444    0.0000 </r>
       <r>    9.3444    0.0000 </r>
       <r>    9.6862    0.0000 </r>
       <r>    9.8687    0.0000 </r>
       <r>    9.8711    0.0000 </r>
       <r>    9.8711    0.0000 </r>
       <r>    9.8735    0.0000 </r>
       <r>   10.9381    0.0000 </r>
       <r>   10.9381    0.0000 </r>
       <r>   11.0559    0.0000 </r>
       <r>   11.0559    0.0000 </r>
       <r>   11.4687    0.0000 </r>
       <r>   11.4717    0.0000 </r>
       <r>   11.4717    0.0000 </r>
       <r>   11.4746    0.0000 </r>
       <r>   11.9684    0.0000 </r>
      </set>
      <set comment="kpoint 8">
       <r>   -2.4420    1.0000 </r>
       <r>   -2.4388    1.0000 </r>
       <r>   -0.1585    1.0000 </r>
       <r>   -0.1552    1.0000 </r>
       <r>   -0.1552    1.0000 </r>
       <r>   -0.1544    1.0000 </r>
       <r>   -0.1541    1.0000 </r>
       <r>   -0.1533    1.0000 </r>
       <r>   -0.1533    1.0000 </r>
       <r>   -0.1501    1.0000 </r>
       <r>    2.0851    1.0000 </r>
       <r>    2.0875    1.0000 </r>
       <r>    2.0924    1.0000 </r>
       <r>    2.0928    1.0000 </r>
       <r>    2.0928    1.0000 </r>
       <r>    2.0937    1.0000 </r>
       <r>    2.0948    1.0000 </r>
       <r>    2.0956    1.0000 </r>
       <r>    2.0956    1.0000 </r>
       <r>    2.0981    1.0000 </r>
       <r>    4.2945    1.0000 </r>
       <r>    4.2945    1.0000 </r>
       <r>    4.2947    1.0000 </r>
       <r>    4.2952    1.0000 </r>
       <r>    4.2956    1.0000 </r>
       <r>    4.2961    1.0000 </r>
       <r>    4.2963    1.0000 </r>
       <r>    4.2963    1.0000 </r>
       <r>    5.8656    1.0000 </r>
       <r>    5.8656    1.0000 </r>
       <r>    5.8690    1.0000 </r>
       <r>    5.8690    1.0000 </r>
       <r>    6.5035    1.0000 </r>
       <r>    6.5035    1.0000 </r>
       <r>    6.5039    1.0000 </r>
       <r>    6.5044    1.0000 </r>
       <r>    6.5047    1.0000 </r>
       <r>    6.5051    1.0000 </r>
       <r>    6.5056    1.0000 </r>
       <r>    6.5056    1.0000 </r>
       <r>    7.2770    1.0000 </r>
       <r>    7.2782    1.0000 </r>
       <r>    7.2801    1.0000 </r>
       <r>    7.2813    1.0000 </r>
       <r>    7.9821    1.0000 </r>
       <r>    7.9821    1.0000 </r>
       <r>    7.9830    1.0000 </r>
       <r>    7.9845    1.0000 </r>
       <r>    7.9848    1.0000 </r>
       <r>    7.9862    1.0000 </r>
       <r>    7.9871    1.0000 </r>
       <r>    7.9871    1.0000 </r>
       <r>    9.5512    0.0000 </r>
       <r>    9.5521    0.0000 </r>
       <r>    9.5521    0.0000 </r>
       <r>    9.5523    0.0000 </r>
       <r>    9.5548    0.0000 </r>
       <r>    9.5549    0.0000 </r>
       <r>    9.5549    0.0000 </r>
       <r>    9.5559    0.0000 </r>
       <r>   10.1069    0.0000 </r>
       <r>   10.1069    0.0000 </r>
       <r>   10.1092    0.0000 </r>
       <r>   10.1092    0.0000 </r>
       <r>   10.9793    0.0000 </r>
       <r>   10.9805    0.0000 </r>
       <r>   11.7630    0.0000 </r>
       <r>   11.7634    0.0000 </r>
       <r>   11.7648    0.0000 </r>
       <r>   11.7652    0.0000 </r>
       <r>   12.2363    0.0000 </r>
       <r>   12.2368    0.0000 </r>
      </set>
      <set comment="kpoint 9">
       <r>   -2.4404    1.0000 </r>
       <r>   -2.4404    1.0000 </r>
       <r>   -0.1597    1.0000 </r>
       <r>   -0.1548    1.0000 </r>
       <r>   -0.1543    1.0000 </r>
       <r>   -0.1543    1.0000 </r>
       <r>   -0.1543    1.0000 </r>
       <r>   -0.1543    1.0000 </r>
       <r>   -0.1537    1.0000 </r>
       <r>   -0.1489    1.0000 </r>
       <r>    2.0860    1.0000 </r>
       <r>    2.0872    1.0000 </r>
       <r>    2.0913    1.0000 </r>
       <r>    2.0920    1.0000 </r>
       <r>    2.0937    1.0000 </r>
       <r>    2.0940    1.0000 </r>
       <r>    2.0945    1.0000 </r>
       <r>    2.0949    1.0000 </r>
       <r>    2.0964    1.0000 </r>
       <r>    2.0985    1.0000 </r>
       <r>    4.2920    1.0000 </r>
       <r>    4.2926    1.0000 </r>
       <r>    4.2954    1.0000 </r>
       <r>    4.2954    1.0000 </r>
       <r>    4.2954    1.0000 </r>
       <r>    4.2954    1.0000 </r>
       <r>    4.2982    1.0000 </r>
       <r>    4.2988    1.0000 </r>
       <r>    5.8673    1.0000 </r>
       <r>    5.8673    1.0000 </r>
       <r>    5.8673    1.0000 </r>
       <r>    5.8673    1.0000 </r>
       <r>    6.5014    1.0000 </r>
       <r>    6.5030    1.0000 </r>
       <r>    6.5032    1.0000 </r>
       <r>    6.5034    1.0000 </r>
       <r>    6.5057    1.0000 </r>
       <r>    6.5059    1.0000 </r>
       <r>    6.5061    1.0000 </r>
       <r>    6.5077    1.0000 </r>
       <r>    7.2791    1.0000 </r>
       <r>    7.2792    1.0000 </r>
       <r>    7.2792    1.0000 </r>
       <r>    7.2792    1.0000 </r>
       <r>    7.9794    1.0000 </r>
       <r>    7.9841    1.0000 </r>
       <r>    7.9846    1.0000 </r>
       <r>    7.9846    1.0000 </r>
       <r>    7.9846    1.0000 </r>
       <r>    7.9847    1.0000 </r>
       <r>    7.9851    1.0000 </r>
       <r>    7.9898    1.0000 </r>
       <r>    9.5493    0.0000 </r>
       <r>    9.5530    0.0000 </r>
       <r>    9.5535    0.0000 </r>
       <r>    9.5535    0.0000 </r>
       <r>    9.5535    0.0000 </r>
       <r>    9.5535    0.0000 </r>
       <r>    9.5541    0.0000 </r>
       <r>    9.5578    0.0000 </r>
       <r>   10.1080    0.0000 </r>
       <r>   10.1080    0.0000 </r>
       <r>   10.1080    0.0000 </r>
       <r>   10.1081    0.0000 </r>
       <r>   10.9799    0.0000 </r>
       <r>   10.9799    0.0000 </r>
       <r>   11.7641    0.0000 </r>
       <r>   11.7641    0.0000 </r>
       <r>   11.7641    0.0000 </r>
       <r>   11.7641    0.0000 </r>
       <r>   12.2351    0.0000 </r>
       <r>   12.2368    0.0000 </r>
      </set>
      <set comment="kpoint 10">
       <r>   -2.9457    1.0000 </r>
       <r>   -1.2223    1.0000 </r>
       <r>   -1.2199    1.0000 </r>
       <r>   -0.6511    1.0000 </r>
       <r>   -0.6511    1.0000 </r>
       <r>   -0.0850    1.0000 </r>
       <r>   -0.0825    1.0000 </r>
       <r>    0.4821    1.0000 </r>
       <r>    1.0433    1.0000 </r>
       <r>    1.0443    1.0000 </r>
       <r>    1.0458    1.0000 </r>
       <r>    1.0468    1.0000 </r>
       <r>    1.6049    1.0000 </r>
       <r>    1.6059    1.0000 </r>
       <r>    2.1618    1.0000 </r>
       <r>    2.1628    1.0000 </r>
       <r>    2.1643    1.0000 </r>
       <r>    2.1653    1.0000 </r>
       <r>    2.7177    1.0000 </r>
       <r>    2.7178    1.0000 </r>
       <r>    2.7192    1.0000 </r>
       <r>    3.6855    1.0000 </r>
       <r>    3.6855    1.0000 </r>
       <r>    3.9882    1.0000 </r>
       <r>    3.9882    1.0000 </r>
       <r>    4.7980    1.0000 </r>
       <r>    4.7989    1.0000 </r>
       <r>    4.9486    1.0000 </r>
       <r>    4.9486    1.0000 </r>
       <r>    5.4053    1.0000 </r>
       <r>    6.4032    1.0000 </r>
       <r>    6.4056    1.0000 </r>
       <r>    6.8022    1.0000 </r>
       <r>    6.8311    1.0000 </r>
       <r>    6.8311    1.0000 </r>
       <r>    6.9896    1.0000 </r>
       <r>    6.9923    1.0000 </r>
       <r>    7.0551    1.0000 </r>
       <r>    7.0551    1.0000 </r>
       <r>    7.4033    1.0000 </r>
       <r>    7.4042    1.0000 </r>
       <r>    7.4351    1.0000 </r>
       <r>    7.4371    1.0000 </r>
       <r>    8.0493    1.0000 </r>
       <r>    8.0521    1.0000 </r>
       <r>    8.4619    0.0004 </r>
       <r>    8.4638    0.0003 </r>
       <r>    8.5675    0.0000 </r>
       <r>    8.5683    0.0000 </r>
       <r>    8.5698    0.0000 </r>
       <r>    8.5710    0.0000 </r>
       <r>    8.5817    0.0000 </r>
       <r>    8.8011    0.0000 </r>
       <r>    8.8038    0.0000 </r>
       <r>    9.2118    0.0000 </r>
       <r>    9.2118    0.0000 </r>
       <r>    9.6363    0.0000 </r>
       <r>    9.6371    0.0000 </r>
       <r>    9.6376    0.0000 </r>
       <r>    9.6388    0.0000 </r>
       <r>    9.6430    0.0000 </r>
       <r>    9.6449    0.0000 </r>
       <r>    9.9922    0.0000 </r>
       <r>    9.9928    0.0000 </r>
       <r>   10.1523    0.0000 </r>
       <r>   10.1523    0.0000 </r>
       <r>   10.1875    0.0000 </r>
       <r>   10.3585    0.0000 </r>
       <r>   10.3605    0.0000 </r>
       <r>   10.7070    0.0000 </r>
       <r>   11.2563    0.0000 </r>
       <r>   11.2596    0.0000 </r>
      </set>
      <set comment="kpoint 11">
       <r>   -2.9457    1.0000 </r>
       <r>   -1.2211    1.0000 </r>
       <r>   -1.2211    1.0000 </r>
       <r>   -0.6528    1.0000 </r>
       <r>   -0.6494    1.0000 </r>
       <r>   -0.0838    1.0000 </r>
       <r>   -0.0838    1.0000 </r>
       <r>    0.4821    1.0000 </r>
       <r>    1.0423    1.0000 </r>
       <r>    1.0443    1.0000 </r>
       <r>    1.0457    1.0000 </r>
       <r>    1.0478    1.0000 </r>
       <r>    1.6054    1.0000 </r>
       <r>    1.6054    1.0000 </r>
       <r>    2.1608    1.0000 </r>
       <r>    2.1628    1.0000 </r>
       <r>    2.1643    1.0000 </r>
       <r>    2.1663    1.0000 </r>
       <r>    2.7161    1.0000 </r>
       <r>    2.7190    1.0000 </r>
       <r>    2.7197    1.0000 </r>
       <r>    3.6855    1.0000 </r>
       <r>    3.6855    1.0000 </r>
       <r>    3.9882    1.0000 </r>
       <r>    3.9883    1.0000 </r>
       <r>    4.7985    1.0000 </r>
       <r>    4.7985    1.0000 </r>
       <r>    4.9469    1.0000 </r>
       <r>    4.9504    1.0000 </r>
       <r>    5.4054    1.0000 </r>
       <r>    6.4044    1.0000 </r>
       <r>    6.4044    1.0000 </r>
       <r>    6.8022    1.0000 </r>
       <r>    6.8311    1.0000 </r>
       <r>    6.8311    1.0000 </r>
       <r>    6.9910    1.0000 </r>
       <r>    6.9910    1.0000 </r>
       <r>    7.0551    1.0000 </r>
       <r>    7.0551    1.0000 </r>
       <r>    7.4038    1.0000 </r>
       <r>    7.4038    1.0000 </r>
       <r>    7.4360    1.0000 </r>
       <r>    7.4360    1.0000 </r>
       <r>    8.0507    1.0000 </r>
       <r>    8.0507    1.0000 </r>
       <r>    8.4629    0.0003 </r>
       <r>    8.4629    0.0003 </r>
       <r>    8.5660    0.0000 </r>
       <r>    8.5683    0.0000 </r>
       <r>    8.5701    0.0000 </r>
       <r>    8.5719    0.0000 </r>
       <r>    8.5820    0.0000 </r>
       <r>    8.8024    0.0000 </r>
       <r>    8.8024    0.0000 </r>
       <r>    9.2118    0.0000 </r>
       <r>    9.2118    0.0000 </r>
       <r>    9.6349    0.0000 </r>
       <r>    9.6358    0.0000 </r>
       <r>    9.6392    0.0000 </r>
       <r>    9.6392    0.0000 </r>
       <r>    9.6439    0.0000 </r>
       <r>    9.6447    0.0000 </r>
       <r>    9.9925    0.0000 </r>
       <r>    9.9925    0.0000 </r>
       <r>   10.1523    0.0000 </r>
       <r>   10.1523    0.0000 </r>
       <r>   10.1874    0.0000 </r>
       <r>   10.3594    0.0000 </r>
       <r>   10.3595    0.0000 </r>
       <r>   10.7070    0.0000 </r>
       <r>   11.2553    0.0000 </r>
       <r>   11.2609    0.0000 </r>
      </set>
      <set comment="kpoint 12">
       <r>   -2.8373    1.0000 </r>
       <r>   -1.6860    1.0000 </r>
       <r>   -1.1140    1.0000 </r>
       <r>   -0.5445    1.0000 </r>
       <r>   -0.5445    1.0000 </r>
       <r>    0.0220    1.0000 </r>
       <r>    0.0233    1.0000 </r>
       <r>    0.5852    1.0000 </r>
       <r>    0.5878    1.0000 </r>
       <r>    0.5891    1.0000 </r>
       <r>    1.1495    1.0000 </r>
       <r>    1.1504    1.0000 </r>
       <r>    1.1509    1.0000 </r>
       <r>    2.2655    1.0000 </r>
       <r>    2.2676    1.0000 </r>
       <r>    2.2678    1.0000 </r>
       <r>    2.2684    1.0000 </r>
       <r>    2.2699    1.0000 </r>
       <r>    2.8224    1.0000 </r>
       <r>    2.8224    1.0000 </r>
       <r>    3.3655    1.0000 </r>
       <r>    3.3658    1.0000 </r>
       <r>    3.3753    1.0000 </r>
       <r>    3.8873    1.0000 </r>
       <r>    4.5116    1.0000 </r>
       <r>    4.5116    1.0000 </r>
       <r>    4.8994    1.0000 </r>
       <r>    5.5043    1.0000 </r>
       <r>    5.5162    1.0000 </r>
       <r>    5.5950    1.0000 </r>
       <r>    5.5950    1.0000 </r>
       <r>    5.9721    1.0000 </r>
       <r>    6.0438    1.0000 </r>
       <r>    6.0438    1.0000 </r>
       <r>    6.5610    1.0000 </r>
       <r>    6.5772    1.0000 </r>
       <r>    6.9053    1.0000 </r>
       <r>    7.0690    1.0000 </r>
       <r>    7.0690    1.0000 </r>
       <r>    7.0903    1.0000 </r>
       <r>    7.5049    1.0000 </r>
       <r>    7.7051    1.0000 </r>
       <r>    7.7051    1.0000 </r>
       <r>    7.8111    1.0000 </r>
       <r>    8.1343    1.0000 </r>
       <r>    8.1343    1.0000 </r>
       <r>    8.1495    1.0000 </r>
       <r>    8.1512    1.0000 </r>
       <r>    8.3256    0.6852 </r>
       <r>    8.5012    0.0000 </r>
       <r>    8.5163    0.0000 </r>
       <r>    8.6192    0.0000 </r>
       <r>    8.6807    0.0000 </r>
       <r>    8.7800    0.0000 </r>
       <r>    8.7800    0.0000 </r>
       <r>    9.2121    0.0000 </r>
       <r>    9.4598    0.0000 </r>
       <r>    9.6171    0.0000 </r>
       <r>    9.6171    0.0000 </r>
       <r>    9.7457    0.0000 </r>
       <r>   10.2700    0.0000 </r>
       <r>   10.2700    0.0000 </r>
       <r>   10.2750    0.0000 </r>
       <r>   10.4649    0.0000 </r>
       <r>   10.5104    0.0000 </r>
       <r>   10.8139    0.0000 </r>
       <r>   10.8240    0.0000 </r>
       <r>   10.8240    0.0000 </r>
       <r>   10.9063    0.0000 </r>
       <r>   10.9063    0.0000 </r>
       <r>   10.9346    0.0000 </r>
       <r>   11.3216    0.0000 </r>
      </set>
      <set comment="kpoint 13">
       <r>   -2.8373    1.0000 </r>
       <r>   -1.6860    1.0000 </r>
       <r>   -1.1140    1.0000 </r>
       <r>   -0.5462    1.0000 </r>
       <r>   -0.5428    1.0000 </r>
       <r>    0.0224    1.0000 </r>
       <r>    0.0229    1.0000 </r>
       <r>    0.5856    1.0000 </r>
       <r>    0.5869    1.0000 </r>
       <r>    0.5896    1.0000 </r>
       <r>    1.1485    1.0000 </r>
       <r>    1.1500    1.0000 </r>
       <r>    1.1522    1.0000 </r>
       <r>    2.2656    1.0000 </r>
       <r>    2.2666    1.0000 </r>
       <r>    2.2674    1.0000 </r>
       <r>    2.2694    1.0000 </r>
       <r>    2.2703    1.0000 </r>
       <r>    2.8207    1.0000 </r>
       <r>    2.8241    1.0000 </r>
       <r>    3.3641    1.0000 </r>
       <r>    3.3674    1.0000 </r>
       <r>    3.3750    1.0000 </r>
       <r>    3.8873    1.0000 </r>
       <r>    4.5099    1.0000 </r>
       <r>    4.5133    1.0000 </r>
       <r>    4.8994    1.0000 </r>
       <r>    5.5043    1.0000 </r>
       <r>    5.5162    1.0000 </r>
       <r>    5.5932    1.0000 </r>
       <r>    5.5968    1.0000 </r>
       <r>    5.9721    1.0000 </r>
       <r>    6.0420    1.0000 </r>
       <r>    6.0455    1.0000 </r>
       <r>    6.5609    1.0000 </r>
       <r>    6.5774    1.0000 </r>
       <r>    6.9053    1.0000 </r>
       <r>    7.0672    1.0000 </r>
       <r>    7.0708    1.0000 </r>
       <r>    7.0904    1.0000 </r>
       <r>    7.5049    1.0000 </r>
       <r>    7.7032    1.0000 </r>
       <r>    7.7069    1.0000 </r>
       <r>    7.8111    1.0000 </r>
       <r>    8.1323    1.0000 </r>
       <r>    8.1361    1.0000 </r>
       <r>    8.1502    1.0000 </r>
       <r>    8.1506    1.0000 </r>
       <r>    8.3256    0.6854 </r>
       <r>    8.5012    0.0000 </r>
       <r>    8.5163    0.0000 </r>
       <r>    8.6191    0.0000 </r>
       <r>    8.6808    0.0000 </r>
       <r>    8.7781    0.0000 </r>
       <r>    8.7819    0.0000 </r>
       <r>    9.2121    0.0000 </r>
       <r>    9.4598    0.0000 </r>
       <r>    9.6159    0.0000 </r>
       <r>    9.6182    0.0000 </r>
       <r>    9.7457    0.0000 </r>
       <r>   10.2678    0.0000 </r>
       <r>   10.2716    0.0000 </r>
       <r>   10.2756    0.0000 </r>
       <r>   10.4649    0.0000 </r>
       <r>   10.5104    0.0000 </r>
       <r>   10.8137    0.0000 </r>
       <r>   10.8226    0.0000 </r>
       <r>   10.8257    0.0000 </r>
       <r>   10.9051    0.0000 </r>
       <r>   10.9075    0.0000 </r>
       <r>   10.9346    0.0000 </r>
       <r>   11.3316    0.0000 </r>
      </set>
      <set comment="kpoint 14">
       <r>   -2.8373    1.0000 </r>
       <r>   -1.6860    1.0000 </r>
       <r>   -1.1140    1.0000 </r>
       <r>   -0.5445    1.0000 </r>
       <r>   -0.5445    1.0000 </r>
       <r>    0.0213    1.0000 </r>
       <r>    0.0240    1.0000 </r>
       <r>    0.5865    1.0000 </r>
       <r>    0.5878    1.0000 </r>
       <r>    0.5878    1.0000 </r>
       <r>    1.1487    1.0000 </r>
       <r>    1.1504    1.0000 </r>
       <r>    1.1516    1.0000 </r>
       <r>    2.2656    1.0000 </r>
       <r>    2.2670    1.0000 </r>
       <r>    2.2676    1.0000 </r>
       <r>    2.2690    1.0000 </r>
       <r>    2.2700    1.0000 </r>
       <r>    2.8224    1.0000 </r>
       <r>    2.8224    1.0000 </r>
       <r>    3.3658    1.0000 </r>
       <r>    3.3658    1.0000 </r>
       <r>    3.3749    1.0000 </r>
       <r>    3.8873    1.0000 </r>
       <r>    4.5116    1.0000 </r>
       <r>    4.5116    1.0000 </r>
       <r>    4.8995    1.0000 </r>
       <r>    5.5043    1.0000 </r>
       <r>    5.5162    1.0000 </r>
       <r>    5.5950    1.0000 </r>
       <r>    5.5950    1.0000 </r>
       <r>    5.9720    1.0000 </r>
       <r>    6.0438    1.0000 </r>
       <r>    6.0438    1.0000 </r>
       <r>    6.5610    1.0000 </r>
       <r>    6.5772    1.0000 </r>
       <r>    6.9053    1.0000 </r>
       <r>    7.0690    1.0000 </r>
       <r>    7.0691    1.0000 </r>
       <r>    7.0904    1.0000 </r>
       <r>    7.5049    1.0000 </r>
       <r>    7.7051    1.0000 </r>
       <r>    7.7051    1.0000 </r>
       <r>    7.8111    1.0000 </r>
       <r>    8.1341    1.0000 </r>
       <r>    8.1343    1.0000 </r>
       <r>    8.1487    1.0000 </r>
       <r>    8.1521    1.0000 </r>
       <r>    8.3256    0.6854 </r>
       <r>    8.5013    0.0000 </r>
       <r>    8.5163    0.0000 </r>
       <r>    8.6192    0.0000 </r>
       <r>    8.6807    0.0000 </r>
       <r>    8.7800    0.0000 </r>
       <r>    8.7800    0.0000 </r>
       <r>    9.2121    0.0000 </r>
       <r>    9.4598    0.0000 </r>
       <r>    9.6171    0.0000 </r>
       <r>    9.6171    0.0000 </r>
       <r>    9.7457    0.0000 </r>
       <r>   10.2696    0.0000 </r>
       <r>   10.2700    0.0000 </r>
       <r>   10.2754    0.0000 </r>
       <r>   10.4649    0.0000 </r>
       <r>   10.5104    0.0000 </r>
       <r>   10.8137    0.0000 </r>
       <r>   10.8241    0.0000 </r>
       <r>   10.8243    0.0000 </r>
       <r>   10.9063    0.0000 </r>
       <r>   10.9063    0.0000 </r>
       <r>   10.9346    0.0000 </r>
       <r>   11.3232    0.0000 </r>
      </set>
      <set comment="kpoint 15">
       <r>   -2.6567    1.0000 </r>
       <r>   -2.0806    1.0000 </r>
       <r>   -0.9358    1.0000 </r>
       <r>   -0.3683    1.0000 </r>
       <r>   -0.3670    1.0000 </r>
       <r>   -0.3655    1.0000 </r>
       <r>    0.1980    1.0000 </r>
       <r>    0.1996    1.0000 </r>
       <r>    0.2008    1.0000 </r>
       <r>    0.7634    1.0000 </r>
       <r>    1.3221    1.0000 </r>
       <r>    1.3258    1.0000 </r>
       <r>    1.3263    1.0000 </r>
       <r>    1.8853    1.0000 </r>
       <r>    1.8853    1.0000 </r>
       <r>    2.4416    1.0000 </r>
       <r>    2.4416    1.0000 </r>
       <r>    2.9805    1.0000 </r>
       <r>    2.9933    1.0000 </r>
       <r>    2.9939    1.0000 </r>
       <r>    2.9943    1.0000 </r>
       <r>    3.5452    1.0000 </r>
       <r>    3.5452    1.0000 </r>
       <r>    4.0942    1.0000 </r>
       <r>    4.6268    1.0000 </r>
       <r>    5.0676    1.0000 </r>
       <r>    5.1673    1.0000 </r>
       <r>    5.1673    1.0000 </r>
       <r>    5.2196    1.0000 </r>
       <r>    5.2197    1.0000 </r>
       <r>    5.6044    1.0000 </r>
       <r>    5.6693    1.0000 </r>
       <r>    5.7065    1.0000 </r>
       <r>    6.1975    1.0000 </r>
       <r>    6.3068    1.0000 </r>
       <r>    6.3068    1.0000 </r>
       <r>    6.8291    1.0000 </r>
       <r>    6.8291    1.0000 </r>
       <r>    7.0752    1.0000 </r>
       <r>    7.2315    1.0000 </r>
       <r>    7.2315    1.0000 </r>
       <r>    7.2558    1.0000 </r>
       <r>    7.5904    1.0000 </r>
       <r>    7.6722    1.0000 </r>
       <r>    7.7660    1.0000 </r>
       <r>    7.7660    1.0000 </r>
       <r>    7.7858    1.0000 </r>
       <r>    7.9094    1.0000 </r>
       <r>    7.9094    1.0000 </r>
       <r>    8.1905    1.0000 </r>
       <r>    8.3161    0.7741 </r>
       <r>    8.8076    0.0000 </r>
       <r>    8.8470    0.0000 </r>
       <r>    8.8851    0.0000 </r>
       <r>    9.3681    0.0000 </r>
       <r>    9.3776    0.0000 </r>
       <r>    9.7180    0.0000 </r>
       <r>    9.8130    0.0000 </r>
       <r>    9.8677    0.0000 </r>
       <r>    9.8677    0.0000 </r>
       <r>   10.4321    0.0000 </r>
       <r>   10.4409    0.0000 </r>
       <r>   10.4481    0.0000 </r>
       <r>   10.4481    0.0000 </r>
       <r>   10.9669    0.0000 </r>
       <r>   10.9669    0.0000 </r>
       <r>   10.9710    0.0000 </r>
       <r>   10.9735    0.0000 </r>
       <r>   11.0967    0.0000 </r>
       <r>   11.5240    0.0000 </r>
       <r>   11.5929    0.0000 </r>
       <r>   12.0137    0.0000 </r>
      </set>
      <set comment="kpoint 16">
       <r>   -2.6567    1.0000 </r>
       <r>   -2.0806    1.0000 </r>
       <r>   -0.9358    1.0000 </r>
       <r>   -0.3692    1.0000 </r>
       <r>   -0.3669    1.0000 </r>
       <r>   -0.3647    1.0000 </r>
       <r>    0.1973    1.0000 </r>
       <r>    0.1994    1.0000 </r>
       <r>    0.2018    1.0000 </r>
       <r>    0.7635    1.0000 </r>
       <r>    1.3219    1.0000 </r>
       <r>    1.3245    1.0000 </r>
       <r>    1.3277    1.0000 </r>
       <r>    1.8836    1.0000 </r>
       <r>    1.8870    1.0000 </r>
       <r>    2.4399    1.0000 </r>
       <r>    2.4433    1.0000 </r>
       <r>    2.9805    1.0000 </r>
       <r>    2.9922    1.0000 </r>
       <r>    2.9936    1.0000 </r>
       <r>    2.9957    1.0000 </r>
       <r>    3.5435    1.0000 </r>
       <r>    3.5470    1.0000 </r>
       <r>    4.0942    1.0000 </r>
       <r>    4.6268    1.0000 </r>
       <r>    5.0676    1.0000 </r>
       <r>    5.1656    1.0000 </r>
       <r>    5.1691    1.0000 </r>
       <r>    5.2179    1.0000 </r>
       <r>    5.2214    1.0000 </r>
       <r>    5.6044    1.0000 </r>
       <r>    5.6693    1.0000 </r>
       <r>    5.7065    1.0000 </r>
       <r>    6.1975    1.0000 </r>
       <r>    6.3050    1.0000 </r>
       <r>    6.3086    1.0000 </r>
       <r>    6.8273    1.0000 </r>
       <r>    6.8309    1.0000 </r>
       <r>    7.0752    1.0000 </r>
       <r>    7.2295    1.0000 </r>
       <r>    7.2333    1.0000 </r>
       <r>    7.2559    1.0000 </r>
       <r>    7.5904    1.0000 </r>
       <r>    7.6722    1.0000 </r>
       <r>    7.7641    1.0000 </r>
       <r>    7.7679    1.0000 </r>
[...]
       <r>    3.1960    1.0000 </r>
       <r>    3.1960    1.0000 </r>
       <r>    3.1961    1.0000 </r>
       <r>    3.1961    1.0000 </r>
       <r>    3.1962    1.0000 </r>
       <r>    3.1962    1.0000 </r>
       <r>    3.1963    1.0000 </r>
       <r>    3.1963    1.0000 </r>
       <r>    3.1963    1.0000 </r>
       <r>    3.1963    1.0000 </r>
       <r>    3.1967    1.0000 </r>
       <r>    3.1968    1.0000 </r>
       <r>    3.1971    1.0000 </r>
       <r>    3.2004    1.0000 </r>
       <r>    3.2004    1.0000 </r>
       <r>    3.2067    1.0000 </r>
       <r>    7.5633    1.0000 </r>
       <r>    7.5633    1.0000 </r>
       <r>    7.5655    1.0000 </r>
       <r>    7.5672    1.0000 </r>
       <r>    7.5688    1.0000 </r>
       <r>    7.5692    1.0000 </r>
       <r>    7.5693    1.0000 </r>
       <r>    7.5693    1.0000 </r>
       <r>    7.5695    1.0000 </r>
       <r>    7.5695    1.0000 </r>
       <r>    7.5695    1.0000 </r>
       <r>    7.5696    1.0000 </r>
       <r>    7.5696    1.0000 </r>
       <r>    7.5697    1.0000 </r>
       <r>    7.5697    1.0000 </r>
       <r>    7.5697    1.0000 </r>
       <r>    7.5699    1.0000 </r>
       <r>    7.5699    1.0000 </r>
       <r>    7.5700    1.0000 </r>
       <r>    7.5704    1.0000 </r>
       <r>    7.5720    1.0000 </r>
       <r>    7.5737    1.0000 </r>
       <r>    7.5759    1.0000 </r>
       <r>    7.5759    1.0000 </r>
       <r>   11.8450    0.0000 </r>
       <r>   11.8453    0.0000 </r>
       <r>   11.8453    0.0000 </r>
       <r>   11.8458    0.0000 </r>
       <r>   11.8474    0.0000 </r>
       <r>   11.8479    0.0000 </r>
       <r>   11.8479    0.0000 </r>
       <r>   11.8483    0.0000 </r>
       <r>   12.0801    0.0000 </r>
       <r>   12.0811    0.0000 </r>
       <r>   12.0818    0.0000 </r>
       <r>   12.0821    0.0000 </r>
       <r>   12.0829    0.0000 </r>
       <r>   12.0830    0.0000 </r>
       <r>   12.0834    0.0000 </r>
       <r>   12.0844    0.0000 </r>
      </set>
     </set>
    </set>
   </array>
  </eigenvalues>
  <separator name="orbital magnetization" >
   <v name="MAGDIPOLOUT">      0.00000000      0.00000000      0.00000000</v>
  </separator>
  <dos>
   <i name="efermi">      8.34268484 </i>
   <total>
    <array>
     <dimension dim="1">gridpoints</dimension>
     <dimension dim="2">spin</dimension>
     <field>energy</field>
     <field>total</field>
     <field>integrated</field>
     <set>
      <set comment="spin 1">
       <r>    -3.7836     0.0000     0.0000 </r>
       <r>    -3.7275     0.0000     0.0000 </r>
       <r>    -3.6713     0.0000     0.0000 </r>
       <r>    -3.6152     0.0000     0.0000 </r>
       <r>    -3.5590     0.0000     0.0000 </r>
       <r>    -3.5029     0.0000     0.0000 </r>
       <r>    -3.4467     0.0000     0.0000 </r>
       <r>    -3.3906     0.0000     0.0000 </r>
       <r>    -3.3345     0.0000     0.0000 </r>
       <r>    -3.2783     0.0000     0.0000 </r>
       <r>    -3.2222     0.0000     0.0000 </r>
       <r>    -3.1660     0.0000     0.0000 </r>
       <r>    -3.1099     0.0004     0.0000 </r>
       <r>    -3.0537     0.0202     0.0012 </r>
       <r>    -2.9976     0.2293     0.0140 </r>
       <r>    -2.9414     0.7567     0.0565 </r>
       <r>    -2.8853     1.0103     0.1132 </r>
       <r>    -2.8292     1.5737     0.2016 </r>
       <r>    -2.7730     1.7441     0.2995 </r>
       <r>    -2.7169     1.4128     0.3788 </r>
       <r>    -2.6607     2.3927     0.5132 </r>
       <r>    -2.6046     2.3537     0.6453 </r>
       <r>    -2.5484     2.1923     0.7684 </r>
       <r>    -2.4923     2.7848     0.9247 </r>
       <r>    -2.4362     1.8569     1.0290 </r>
       <r>    -2.3800     3.1498     1.2058 </r>
       <r>    -2.3239     3.4337     1.3986 </r>
       <r>    -2.2677     3.3252     1.5853 </r>
       <r>    -2.2116     3.0341     1.7557 </r>
       <r>    -2.1554     1.9087     1.8628 </r>
       <r>    -2.0993     3.5255     2.0608 </r>
       <r>    -2.0431     4.6468     2.3217 </r>
       <r>    -1.9870     3.5733     2.5223 </r>
       <r>    -1.9309     4.4974     2.7748 </r>
       <r>    -1.8747     2.5508     2.9180 </r>
       <r>    -1.8186     3.2175     3.0986 </r>
       <r>    -1.7624     4.7898     3.3676 </r>
       <r>    -1.7063     4.1743     3.6019 </r>
       <r>    -1.6501     4.1151     3.8330 </r>
       <r>    -1.5940     3.5474     4.0321 </r>
       <r>    -1.5378     5.0787     4.3173 </r>
       <r>    -1.4817     5.6024     4.6318 </r>
       <r>    -1.4256     4.0119     4.8571 </r>
       <r>    -1.3694     5.0030     5.1380 </r>
       <r>    -1.3133     2.9995     5.3064 </r>
       <r>    -1.2571     3.2018     5.4861 </r>
       <r>    -1.2010     6.2323     5.8360 </r>
       <r>    -1.1448     5.5362     6.1469 </r>
       <r>    -1.0887     6.4448     6.5087 </r>
       <r>    -1.0325     5.5657     6.8212 </r>
       <r>    -0.9764     4.2228     7.0583 </r>
       <r>    -0.9203     4.5292     7.3125 </r>
       <r>    -0.8641     4.5187     7.5662 </r>
       <r>    -0.8080     5.7301     7.8880 </r>
       <r>    -0.7518     5.2596     8.1833 </r>
       <r>    -0.6957     4.2381     8.4212 </r>
       <r>    -0.6395     7.5843     8.8470 </r>
       <r>    -0.5834     6.1850     9.1943 </r>
       <r>    -0.5272     6.7054     9.5707 </r>
       <r>    -0.4711     4.5808     9.8279 </r>
       <r>    -0.4150     3.8864    10.0461 </r>
       <r>    -0.3588     7.4973    10.4671 </r>
       <r>    -0.3027     7.1984    10.8712 </r>
       <r>    -0.2465     6.3556    11.2280 </r>
       <r>    -0.1904     4.6186    11.4874 </r>
       <r>    -0.1342     4.1086    11.7180 </r>
       <r>    -0.0781     7.0179    12.1120 </r>
       <r>    -0.0219     6.7368    12.4903 </r>
       <r>     0.0342     6.7109    12.8671 </r>
       <r>     0.0903     6.6716    13.2416 </r>
       <r>     0.1465     5.9515    13.5758 </r>
       <r>     0.2026    10.5848    14.1701 </r>
       <r>     0.2588     7.1566    14.5719 </r>
       <r>     0.3149     4.4094    14.8194 </r>
       <r>     0.3711     5.3437    15.1194 </r>
       <r>     0.4272     3.6730    15.3257 </r>
       <r>     0.4834     6.7440    15.7043 </r>
       <r>     0.5395     8.3290    16.1719 </r>
       <r>     0.5956     9.3800    16.6986 </r>
       <r>     0.6518     7.2937    17.1081 </r>
       <r>     0.7079     5.8813    17.4383 </r>
       <r>     0.7641     8.4538    17.9129 </r>
       <r>     0.8202     7.3751    18.3270 </r>
       <r>     0.8764     7.3601    18.7402 </r>
       <r>     0.9325     8.0680    19.1932 </r>
       <r>     0.9887     4.3687    19.4384 </r>
       <r>     1.0448     7.4366    19.8560 </r>
       <r>     1.1009     8.2306    20.3181 </r>
       <r>     1.1571     9.1800    20.8335 </r>
       <r>     1.2132     7.1684    21.2359 </r>
       <r>     1.2694     5.0582    21.5199 </r>
       <r>     1.3255     8.4515    21.9944 </r>
       <r>     1.3817     7.4300    22.4116 </r>
       <r>     1.4378     8.5438    22.8913 </r>
       <r>     1.4940     9.7929    23.4411 </r>
       <r>     1.5501     5.7176    23.7621 </r>
       <r>     1.6062     9.0031    24.2676 </r>
       <r>     1.6624     9.1824    24.7831 </r>
       <r>     1.7185     8.3244    25.2505 </r>
       <r>     1.7747     8.9310    25.7519 </r>
       <r>     1.8308     6.5369    26.1189 </r>
       <r>     1.8870     8.9461    26.6212 </r>
       <r>     1.9431     8.5124    27.0991 </r>
       <r>     1.9993     7.5155    27.5211 </r>
       <r>     2.0554     5.0457    27.8044 </r>
       <r>     2.1115     5.1115    28.0913 </r>
       <r>     2.1677    11.6565    28.7458 </r>
       <r>     2.2238    10.4918    29.3348 </r>
       <r>     2.2800    10.6005    29.9300 </r>
       <r>     2.3361     9.7383    30.4767 </r>
       <r>     2.3923     8.4617    30.9518 </r>
       <r>     2.4484    11.5079    31.5979 </r>
       <r>     2.5046     8.2250    32.0597 </r>
       <r>     2.5607     6.2681    32.4116 </r>
       <r>     2.6168     5.9298    32.7445 </r>
       <r>     2.6730     7.7249    33.1783 </r>
       <r>     2.7291    11.9190    33.8474 </r>
       <r>     2.7853     8.7974    34.3414 </r>
       <r>     2.8414     9.8653    34.8952 </r>
       <r>     2.8976     7.7323    35.3294 </r>
       <r>     2.9537     7.0642    35.7260 </r>
       <r>     3.0099    11.4994    36.3716 </r>
       <r>     3.0660    11.2344    37.0024 </r>
       <r>     3.1221    12.6090    37.7103 </r>
       <r>     3.1783     8.1561    38.1682 </r>
       <r>     3.2344     5.1156    38.4554 </r>
       <r>     3.2906     9.0899    38.9658 </r>
       <r>     3.3467    10.9474    39.5804 </r>
       <r>     3.4029    11.7948    40.2426 </r>
       <r>     3.4590     8.4086    40.7147 </r>
       <r>     3.5152    11.7373    41.3737 </r>
       <r>     3.5713    12.8095    42.0929 </r>
       <r>     3.6274     8.4621    42.5680 </r>
       <r>     3.6836     9.7234    43.1139 </r>
       <r>     3.7397     4.5067    43.3669 </r>
       <r>     3.7959     7.3060    43.7771 </r>
       <r>     3.8520    14.3242    44.5813 </r>
       <r>     3.9082    12.1863    45.2655 </r>
       <r>     3.9643     9.0867    45.7757 </r>
       <r>     4.0205     6.8976    46.1630 </r>
       <r>     4.0766    10.3244    46.7426 </r>
       <r>     4.1327    12.5707    47.4484 </r>
       <r>     4.1889    12.3149    48.1398 </r>
       <r>     4.2450    10.6639    48.7385 </r>
       <r>     4.3012     8.5785    49.2201 </r>
       <r>     4.3573    12.0456    49.8964 </r>
       <r>     4.4135    11.7923    50.5585 </r>
       <r>     4.4696    11.7815    51.2200 </r>
       <r>     4.5258     9.5490    51.7561 </r>
       <r>     4.5819     6.3597    52.1132 </r>
       <r>     4.6380     6.1949    52.4610 </r>
       <r>     4.6942    10.0375    53.0245 </r>
       <r>     4.7503    13.3288    53.7729 </r>
       <r>     4.8065    12.6477    54.4830 </r>
       <r>     4.8626    11.2308    55.1135 </r>
       <r>     4.9188    12.8558    55.8353 </r>
       <r>     4.9749    11.7905    56.4972 </r>
       <r>     5.0311    12.7401    57.2125 </r>
       <r>     5.0872    12.1660    57.8956 </r>
       <r>     5.1433     9.3946    58.4230 </r>
       <r>     5.1995    10.2850    59.0005 </r>
       <r>     5.2556    13.1804    59.7405 </r>
       <r>     5.3118     9.6503    60.2823 </r>
       <r>     5.3679    11.8181    60.9458 </r>
       <r>     5.4241    10.3765    61.5284 </r>
       <r>     5.4802    11.5631    62.1776 </r>
       <r>     5.5364    13.9748    62.9622 </r>
       <r>     5.5925    13.0453    63.6946 </r>
       <r>     5.6486    13.7782    64.4682 </r>
       <r>     5.7048    11.7783    65.1295 </r>
       <r>     5.7609    13.4517    65.8847 </r>
       <r>     5.8171    10.7031    66.4856 </r>
       <r>     5.8732     8.8360    66.9817 </r>
       <r>     5.9294     8.2025    67.4422 </r>
       <r>     5.9855    10.6191    68.0385 </r>
       <r>     6.0417    18.4236    69.0728 </r>
       <r>     6.0978    14.5678    69.8907 </r>
       <r>     6.1539     9.9493    70.4493 </r>
       <r>     6.2101     7.6401    70.8783 </r>
       <r>     6.2662     5.3563    71.1790 </r>
       <r>     6.3224     9.4004    71.7068 </r>
       <r>     6.3785    14.6152    72.5273 </r>
       <r>     6.4347    16.5450    73.4562 </r>
       <r>     6.4908    12.3774    74.1512 </r>
       <r>     6.5469    11.0955    74.7741 </r>
       <r>     6.6031    11.9915    75.4474 </r>
       <r>     6.6592     6.1224    75.7911 </r>
       <r>     6.7154     7.3807    76.2055 </r>
       <r>     6.7715    12.3562    76.8992 </r>
       <r>     6.8277    13.4279    77.6531 </r>
       <r>     6.8838    10.9602    78.2685 </r>
       <r>     6.9400    12.7236    78.9828 </r>
       <r>     6.9961    12.4908    79.6841 </r>
       <r>     7.0522     9.6318    80.2249 </r>
       <r>     7.1084    12.2797    80.9143 </r>
       <r>     7.1645    10.4307    81.5000 </r>
       <r>     7.2207    13.3480    82.2494 </r>
       <r>     7.2768    14.5793    83.0679 </r>
       <r>     7.3330     9.3088    83.5906 </r>
       <r>     7.3891    10.0668    84.1558 </r>
       <r>     7.4453    12.8533    84.8774 </r>
       <r>     7.5014    14.2243    85.6760 </r>
       <r>     7.5575    13.8505    86.4536 </r>
       <r>     7.6137    13.1913    87.1943 </r>
       <r>     7.6698    12.9088    87.9190 </r>
       <r>     7.7260    11.4277    88.5606 </r>
       <r>     7.7821    12.7076    89.2741 </r>
       <r>     7.8383    11.8244    89.9379 </r>
       <r>     7.8944    10.2907    90.5157 </r>
       <r>     7.9506    13.4029    91.2682 </r>
       <r>     8.0067    10.4323    91.8539 </r>
       <r>     8.0628    11.4139    92.4948 </r>
       <r>     8.1190    12.6123    93.2029 </r>
       <r>     8.1751    11.8116    93.8660 </r>
       <r>     8.2313    11.9585    94.5374 </r>
       <r>     8.2874    14.6071    95.3575 </r>
       <r>     8.3436    11.5776    96.0075 </r>
       <r>     8.3997     8.0910    96.4618 </r>
       <r>     8.4559    10.6964    97.0623 </r>
       <r>     8.5120    11.9266    97.7320 </r>
       <r>     8.5681    13.0735    98.4660 </r>
       <r>     8.6243    12.1674    99.1491 </r>
       <r>     8.6804    14.2875    99.9513 </r>
       <r>     8.7366    15.3902   100.8153 </r>
       <r>     8.7927    16.6448   101.7498 </r>
       <r>     8.8489    17.6581   102.7412 </r>
       <r>     8.9050    14.4651   103.5534 </r>
       <r>     8.9612    14.8386   104.3865 </r>
       <r>     9.0173    15.4344   105.2530 </r>
       <r>     9.0734    10.2957   105.8311 </r>
       <r>     9.1296    10.4302   106.4167 </r>
       <r>     9.1857    11.9136   107.0856 </r>
       <r>     9.2419    13.3754   107.8365 </r>
       <r>     9.2980    10.3485   108.4175 </r>
       <r>     9.3542    10.6283   109.0142 </r>
       <r>     9.4103    12.4548   109.7135 </r>
       <r>     9.4665     9.6211   110.2537 </r>
       <r>     9.5226    10.9982   110.8712 </r>
       <r>     9.5787    10.8648   111.4812 </r>
       <r>     9.6349    18.3353   112.5106 </r>
       <r>     9.6910    20.3973   113.6558 </r>
       <r>     9.7472    12.3831   114.3510 </r>
       <r>     9.8033    15.2832   115.2091 </r>
       <r>     9.8595    18.1105   116.2259 </r>
       <r>     9.9156    15.3723   117.0890 </r>
       <r>     9.9718    13.0304   117.8205 </r>
       <r>    10.0279    12.2870   118.5104 </r>
       <r>    10.0840     9.4175   119.0391 </r>
       <r>    10.1402    11.1230   119.6636 </r>
       <r>    10.1963    10.5956   120.2585 </r>
       <r>    10.2525    10.4622   120.8459 </r>
       <r>    10.3086    13.1905   121.5865 </r>
       <r>    10.3648    15.6243   122.4637 </r>
       <r>    10.4209    19.6316   123.5659 </r>
       <r>    10.4771    20.9260   124.7408 </r>
       <r>    10.5332    12.3497   125.4341 </r>
       <r>    10.5893    11.1180   126.0583 </r>
       <r>    10.6455    11.3841   126.6975 </r>
       <r>    10.7016    14.4727   127.5101 </r>
       <r>    10.7578    12.7070   128.2235 </r>
       <r>    10.8139    14.2616   129.0242 </r>
       <r>    10.8701    16.0101   129.9231 </r>
       <r>    10.9262    13.2051   130.6645 </r>
       <r>    10.9824    13.9097   131.4454 </r>
       <r>    11.0385    13.3136   132.1929 </r>
       <r>    11.0946    10.4563   132.7800 </r>
       <r>    11.1508    11.7824   133.4415 </r>
       <r>    11.2069    15.9540   134.3372 </r>
       <r>    11.2631    18.7947   135.3924 </r>
       <r>    11.3192    10.1544   135.9625 </r>
       <r>    11.3754    10.9787   136.5789 </r>
       <r>    11.4315    13.4209   137.3324 </r>
       <r>    11.4877    16.9344   138.2832 </r>
       <r>    11.5438    14.6396   139.1051 </r>
       <r>    11.5999    14.2985   139.9079 </r>
       <r>    11.6561    15.6276   140.7853 </r>
       <r>    11.7122    11.1827   141.4132 </r>
       <r>    11.7684     9.4602   141.9443 </r>
       <r>    11.8245     5.6395   142.2609 </r>
       <r>    11.8807     6.5224   142.6271 </r>
       <r>    11.9368     7.5497   143.0510 </r>
       <r>    11.9930     4.8348   143.3224 </r>
       <r>    12.0491     4.1451   143.5552 </r>
       <r>    12.1052     3.3363   143.7425 </r>
       <r>    12.1614     2.0292   143.8564 </r>
       <r>    12.2175     0.6079   143.8905 </r>
       <r>    12.2737     0.7301   143.9315 </r>
       <r>    12.3298     0.9837   143.9868 </r>
       <r>    12.3860     0.2295   143.9996 </r>
       <r>    12.4421     0.0064   144.0000 </r>
       <r>    12.4983     0.0000   144.0000 </r>
       <r>    12.5544     0.0000   144.0000 </r>
       <r>    12.6105     0.0000   144.0000 </r>
       <r>    12.6667     0.0000   144.0000 </r>
       <r>    12.7228     0.0000   144.0000 </r>
       <r>    12.7790     0.0000   144.0000 </r>
       <r>    12.8351     0.0000   144.0000 </r>
       <r>    12.8913     0.0000   144.0000 </r>
       <r>    12.9474     0.0000   144.0000 </r>
       <r>    13.0036     0.0000   144.0000 </r>
       <r>    13.0597     0.0000   144.0000 </r>
      </set>
     </set>
    </array>
   </total>
  </dos>
 </calculation>
 <structure name="finalpos" >
  <crystal>
   <varray name="basis" >
    <v>       7.99605807       0.00000000       0.00000000 </v>
    <v>       0.00000000       7.99605807       0.00000000 </v>
    <v>       0.00000000       0.00000000       7.99605807 </v>
   </varray>
   <i name="volume">    511.24352321 </i>
   <varray name="rec_basis" >
    <v>       0.12506162       0.00000000       0.00000000 </v>
    <v>       0.00000000       0.12506162       0.00000000 </v>
    <v>       0.00000000       0.00000000       0.12506162 </v>
   </varray>
  </crystal>
  <varray name="positions" >
   <v>       0.00125062       0.00000000       0.00000000 </v>
   <v>       0.50000000       0.00000000       0.00000000 </v>
   <v>       0.00000000       0.50000000       0.00000000 </v>
   <v>       0.50000000       0.50000000       0.00000000 </v>
   <v>       0.00000000       0.00000000       0.50000000 </v>
   <v>       0.50000000       0.00000000       0.50000000 </v>
   <v>       0.00000000       0.50000000       0.50000000 </v>
   <v>       0.50000000       0.50000000       0.50000000 </v>
   <v>       0.00000000       0.25000000       0.25000000 </v>
   <v>       0.50000000       0.25000000       0.25000000 </v>
   <v>       0.00000000       0.75000000       0.25000000 </v>
   <v>       0.50000000       0.75000000       0.25000000 </v>
   <v>       0.00000000       0.25000000       0.75000000 </v>
   <v>       0.50000000       0.25000000       0.75000000 </v>
   <v>       0.00000000       0.75000000       0.75000000 </v>
   <v>       0.50000000       0.75000000       0.75000000 </v>
   <v>       0.25000000       0.00000000       0.25000000 </v>
   <v>       0.75000000       0.00000000       0.25000000 </v>
   <v>       0.25000000       0.50000000       0.25000000 </v>
   <v>       0.75000000       0.50000000       0.25000000 </v>
   <v>       0.25000000       0.00000000       0.75000000 </v>
   <v>       0.75000000       0.00000000       0.75000000 </v>
   <v>       0.25000000       0.50000000       0.75000000 </v>
   <v>       0.75000000       0.50000000       0.75000000 </v>
   <v>       0.25000000       0.25000000       0.00000000 </v>
   <v>       0.75000000       0.25000000       0.00000000 </v>
   <v>       0.25000000       0.75000000       0.00000000 </v>
   <v>       0.75000000       0.75000000       0.00000000 </v>
   <v>       0.25000000       0.25000000       0.50000000 </v>
   <v>       0.75000000       0.25000000       0.50000000 </v>
   <v>       0.25000000       0.75000000       0.50000000 </v>
   <v>       0.75000000       0.75000000       0.50000000 </v>
  </varray>
 </structure>
</modeling>
