<?xml version="1.0" encoding="ISO-8859-1"?>
<modeling>
 <generator>
  <i name="program" type="string">vasp </i>
  <i name="version" type="string">6.3.0  </i>
  <i name="subversion" type="string">20Jan22 (build Feb 10 2022 15:15:41) complex                          parallel </i>
  <i name="platform" type="string">LinuxIFC </i>
  <i name="date" type="string">2023 10 04 </i>
  <i name="time" type="string">16:13:39 </i>
 </generator>
 <incar>
  <i name="EDIFF">      0.00010000</i>
  <i name="ENCUT">    400.00000000</i>
  <i type="int" name="ISMEAR">     0</i>
  <i name="SIGMA">      0.05000000</i>
 </incar>
 <primitive_cell>
  <structure name="primitive_cell" >
   <crystal>
    <varray name="basis" >
     <v>       8.31913113       0.00000000       0.00000000 </v>
     <v>       0.00000000       8.31913113       0.00000000 </v>
     <v>       0.00000000       0.00000000       8.31913113 </v>
    </varray>
    <i name="volume">    575.74995067 </i>
    <varray name="rec_basis" >
     <v>       0.12020486       0.00000000       0.00000000 </v>
     <v>       0.00000000       0.12020486       0.00000000 </v>
     <v>       0.00000000       0.00000000       0.12020486 </v>
    </varray>
   </crystal>
   <varray name="positions" >
    <v>       0.00120205       0.00000000       0.00000000 </v>
    <v>       0.50000000       0.00000000       0.00000000 </v>
    <v>       0.00000000       0.50000000       0.00000000 </v>
    <v>       0.50000000       0.50000000       0.00000000 </v>
    <v>       0.00000000       0.00000000       0.50000000 </v>
    <v>       0.50000000       0.00000000       0.50000000 </v>
    <v>       0.00000000       0.50000000       0.50000000 </v>
    <v>       0.50000000       0.50000000       0.50000000 </v>
    <v>       0.00000000       0.25000000       0.25000000 </v>
    <v>       0.50000000       0.25000000       0.25000000 </v>
    <v>       0.00000000       0.75000000       0.25000000 </v>
    <v>       0.50000000       0.75000000       0.25000000 </v>
    <v>       0.00000000       0.25000000       0.75000000 </v>
    <v>       0.50000000       0.25000000       0.75000000 </v>
    <v>       0.00000000       0.75000000       0.75000000 </v>
    <v>       0.50000000       0.75000000       0.75000000 </v>
    <v>       0.25000000       0.00000000       0.25000000 </v>
    <v>       0.75000000       0.00000000       0.25000000 </v>
    <v>       0.25000000       0.50000000       0.25000000 </v>
    <v>       0.75000000       0.50000000       0.25000000 </v>
    <v>       0.25000000       0.00000000       0.75000000 </v>
    <v>       0.75000000       0.00000000       0.75000000 </v>
    <v>       0.25000000       0.50000000       0.75000000 </v>
    <v>       0.75000000       0.50000000       0.75000000 </v>
    <v>       0.25000000       0.25000000       0.00000000 </v>
    <v>       0.75000000       0.25000000       0.00000000 </v>
    <v>       0.25000000       0.75000000       0.00000000 </v>
    <v>       0.75000000       0.75000000       0.00000000 </v>
    <v>       0.25000000       0.25000000       0.50000000 </v>
    <v>       0.75000000       0.25000000       0.50000000 </v>
    <v>       0.25000000       0.75000000       0.50000000 </v>
    <v>       0.75000000       0.75000000       0.50000000 </v>
   </varray>
  </structure>
  <varray name="primitive_index" >
   <v type="int" >        1 </v>
   <v type="int" >        2 </v>
   <v type="int" >        3 </v>
   <v type="int" >        4 </v>
   <v type="int" >        5 </v>
   <v type="int" >        6 </v>
   <v type="int" >        7 </v>
   <v type="int" >        8 </v>
   <v type="int" >        9 </v>
   <v type="int" >       10 </v>
   <v type="int" >       11 </v>
   <v type="int" >       12 </v>
   <v type="int" >       13 </v>
   <v type="int" >       14 </v>
   <v type="int" >       15 </v>
   <v type="int" >       16 </v>
   <v type="int" >       17 </v>
   <v type="int" >       18 </v>
   <v type="int" >       19 </v>
   <v type="int" >       20 </v>
   <v type="int" >       21 </v>
   <v type="int" >       22 </v>
   <v type="int" >       23 </v>
   <v type="int" >       24 </v>
   <v type="int" >       25 </v>
   <v type="int" >       26 </v>
   <v type="int" >       27 </v>
   <v type="int" >       28 </v>
   <v type="int" >       29 </v>
   <v type="int" >       30 </v>
   <v type="int" >       31 </v>
   <v type="int" >       32 </v>
  </varray>
 </primitive_cell>
 <kpoints>
  <generation param="Gamma">
   <v type="int" name="divisions">       8        8        8 </v>
   <v name="usershift">      0.00000000       0.00000000       0.00000000 </v>
   <v name="genvec1">      0.12500000       0.00000000       0.00000000 </v>
   <v name="genvec2">      0.00000000       0.12500000       0.00000000 </v>
   <v name="genvec3">      0.00000000       0.00000000       0.12500000 </v>
   <v name="shift">      0.00000000       0.00000000       0.00000000 </v>
  </generation>
  <varray name="kpointlist" >
   <v>       0.00000000       0.00000000       0.00000000 </v>
   <v>       0.12500000       0.00000000       0.00000000 </v>
   <v>       0.00000000       0.12500000       0.00000000 </v>
   <v>       0.25000000       0.00000000       0.00000000 </v>
   <v>       0.00000000       0.25000000       0.00000000 </v>
   <v>       0.37500000       0.00000000       0.00000000 </v>
   <v>       0.00000000       0.37500000       0.00000000 </v>
   <v>       0.50000000       0.00000000       0.00000000 </v>
   <v>       0.00000000       0.50000000       0.00000000 </v>
   <v>       0.12500000       0.12500000       0.00000000 </v>
   <v>       0.00000000       0.12500000       0.12500000 </v>
   <v>       0.25000000       0.12500000       0.00000000 </v>
   <v>       0.00000000       0.25000000       0.12500000 </v>
   <v>       0.12500000       0.00000000       0.25000000 </v>
   <v>       0.37500000       0.12500000       0.00000000 </v>
   <v>       0.00000000       0.37500000       0.12500000 </v>
   <v>       0.12500000       0.00000000       0.37500000 </v>
   <v>       0.50000000       0.12500000       0.00000000 </v>
   <v>       0.00000000       0.50000000       0.12500000 </v>
   <v>       0.12500000       0.00000000       0.50000000 </v>
   <v>       0.25000000       0.25000000       0.00000000 </v>
   <v>       0.00000000       0.25000000       0.25000000 </v>
   <v>       0.37500000       0.25000000       0.00000000 </v>
   <v>       0.00000000       0.37500000       0.25000000 </v>
   <v>       0.25000000       0.00000000       0.37500000 </v>
   <v>       0.50000000       0.25000000       0.00000000 </v>
   <v>       0.00000000       0.50000000       0.25000000 </v>
   <v>       0.25000000       0.00000000       0.50000000 </v>
   <v>       0.37500000       0.37500000       0.00000000 </v>
   <v>       0.00000000       0.37500000       0.37500000 </v>
   <v>       0.50000000       0.37500000       0.00000000 </v>
   <v>       0.00000000       0.50000000       0.37500000 </v>
   <v>       0.37500000       0.00000000       0.50000000 </v>
   <v>       0.50000000       0.50000000       0.00000000 </v>
   <v>       0.00000000       0.50000000       0.50000000 </v>
   <v>       0.12500000       0.12500000       0.12500000 </v>
   <v>       0.25000000       0.12500000       0.12500000 </v>
   <v>       0.12500000       0.25000000       0.12500000 </v>
   <v>       0.37500000       0.12500000       0.12500000 </v>
   <v>       0.12500000       0.37500000       0.12500000 </v>
   <v>       0.50000000       0.12500000       0.12500000 </v>
   <v>       0.12500000       0.50000000       0.12500000 </v>
   <v>       0.25000000       0.25000000       0.12500000 </v>
   <v>       0.12500000       0.25000000       0.25000000 </v>
   <v>       0.37500000       0.25000000       0.12500000 </v>
   <v>       0.12500000       0.37500000       0.25000000 </v>
   <v>       0.25000000       0.12500000       0.37500000 </v>
   <v>       0.50000000       0.25000000       0.12500000 </v>
   <v>       0.12500000       0.50000000       0.25000000 </v>
   <v>       0.25000000       0.12500000       0.50000000 </v>
   <v>       0.37500000       0.37500000       0.12500000 </v>
   <v>       0.12500000       0.37500000       0.37500000 </v>
   <v>       0.50000000       0.37500000       0.12500000 </v>
   <v>       0.12500000       0.50000000       0.37500000 </v>
   <v>       0.37500000       0.12500000       0.50000000 </v>
   <v>       0.50000000       0.50000000       0.12500000 </v>
   <v>       0.12500000       0.50000000       0.50000000 </v>
   <v>       0.25000000       0.25000000       0.25000000 </v>
   <v>       0.37500000       0.25000000       0.25000000 </v>
   <v>       0.25000000       0.37500000       0.25000000 </v>
   <v>       0.50000000       0.25000000       0.25000000 </v>
   <v>       0.25000000       0.50000000       0.25000000 </v>
   <v>       0.37500000       0.37500000       0.25000000 </v>
   <v>       0.25000000       0.37500000       0.37500000 </v>
   <v>       0.50000000       0.37500000       0.25000000 </v>
   <v>       0.25000000       0.50000000       0.37500000 </v>
   <v>       0.37500000       0.25000000       0.50000000 </v>
   <v>       0.50000000       0.50000000       0.25000000 </v>
   <v>       0.25000000       0.50000000       0.50000000 </v>
   <v>       0.37500000       0.37500000       0.37500000 </v>
   <v>       0.50000000       0.37500000       0.37500000 </v>
   <v>       0.37500000       0.50000000       0.37500000 </v>
   <v>       0.50000000       0.50000000       0.37500000 </v>
   <v>       0.37500000       0.50000000       0.50000000 </v>
   <v>       0.50000000       0.50000000       0.50000000 </v>
  </varray>
  <varray name="weights" >
   <v>       0.00195312 </v>
   <v>       0.00390625 </v>
   <v>       0.00781250 </v>
   <v>       0.00390625 </v>
   <v>       0.00781250 </v>
   <v>       0.00390625 </v>
   <v>       0.00781250 </v>
   <v>       0.00195312 </v>
   <v>       0.00390625 </v>
   <v>       0.01562500 </v>
   <v>       0.00781250 </v>
   <v>       0.01562500 </v>
   <v>       0.01562500 </v>
   <v>       0.01562500 </v>
   <v>       0.01562500 </v>
   <v>       0.01562500 </v>
   <v>       0.01562500 </v>
   <v>       0.00781250 </v>
   <v>       0.00781250 </v>
   <v>       0.00781250 </v>
   <v>       0.01562500 </v>
   <v>       0.00781250 </v>
   <v>       0.01562500 </v>
   <v>       0.01562500 </v>
   <v>       0.01562500 </v>
   <v>       0.00781250 </v>
   <v>       0.00781250 </v>
   <v>       0.00781250 </v>
   <v>       0.01562500 </v>
   <v>       0.00781250 </v>
   <v>       0.00781250 </v>
   <v>       0.00781250 </v>
   <v>       0.00781250 </v>
   <v>       0.00390625 </v>
   <v>       0.00195312 </v>
   <v>       0.01562500 </v>
   <v>       0.01562500 </v>
   <v>       0.03125000 </v>
   <v>       0.01562500 </v>
   <v>       0.03125000 </v>
   <v>       0.00781250 </v>
   <v>       0.01562500 </v>
   <v>       0.03125000 </v>
   <v>       0.01562500 </v>
   <v>       0.03125000 </v>
   <v>       0.03125000 </v>
   <v>       0.03125000 </v>
   <v>       0.01562500 </v>
   <v>       0.01562500 </v>
   <v>       0.01562500 </v>
   <v>       0.03125000 </v>
   <v>       0.01562500 </v>
   <v>       0.01562500 </v>
   <v>       0.01562500 </v>
   <v>       0.01562500 </v>
   <v>       0.00781250 </v>
   <v>       0.00390625 </v>
   <v>       0.01562500 </v>
   <v>       0.01562500 </v>
   <v>       0.03125000 </v>
   <v>       0.00781250 </v>
   <v>       0.01562500 </v>
   <v>       0.03125000 </v>
   <v>       0.01562500 </v>
   <v>       0.01562500 </v>
   <v>       0.01562500 </v>
   <v>       0.01562500 </v>
   <v>       0.00781250 </v>
   <v>       0.00390625 </v>
   <v>       0.01562500 </v>
   <v>       0.00781250 </v>
   <v>       0.01562500 </v>
   <v>       0.00781250 </v>
   <v>       0.00390625 </v>
   <v>       0.00195312 </v>
  </varray>
 </kpoints>
 <parameters>
  <separator name="general" >
   <i type="string" name="SYSTEM">unknown system</i>
   <i type="logical" name="LCOMPAT"> F  </i>
  </separator>
  <separator name="electronic" >
   <i type="string" name="PREC">normal</i>
   <i name="ENMAX">    400.00000000</i>
   <i name="ENAUG">    291.05200000</i>
   <i name="EDIFF">      0.00010000</i>
   <i type="int" name="IALGO">    38</i>
   <i type="int" name="IWAVPR">    10</i>
   <i type="int" name="NBANDS">    72</i>
   <i type="int" name="NBANDSLOW">    -1</i>
   <i type="int" name="NBANDSHIGH">    -1</i>
   <i name="NELECT">     96.00000000</i>
   <i type="int" name="TURBO">     0</i>
   <i type="int" name="IRESTART">     0</i>
   <i type="int" name="NREBOOT">     0</i>
   <i type="int" name="NMIN">     0</i>
   <i name="EREF">      0.00000000</i>
   <separator name="electronic smearing" >
    <i type="int" name="ISMEAR">     0</i>
    <i name="SIGMA">      0.05000000</i>
    <i name="KSPACING">      0.50000000</i>
    <i type="logical" name="KGAMMA"> T  </i>
    <i type="logical" name="KBLOWUP"> T  </i>
   </separator>
   <separator name="electronic projectors" >
    <i type="logical" name="LREAL"> F  </i>
    <v name="ROPT">      0.00000000</v>
    <i type="int" name="LMAXPAW">  -100</i>
    <i type="int" name="LMAXMIX">     2</i>
    <i type="logical" name="NLSPLINE"> F  </i>
   </separator>
   <separator name="electronic startup" >
    <i type="int" name="ISTART">     0</i>
    <i type="int" name="ICHARG">     2</i>
    <i type="int" name="INIWAV">     1</i>
   </separator>
   <separator name="electronic spin" >
    <i type="int" name="ISPIN">     1</i>
    <i type="logical" name="LNONCOLLINEAR"> F  </i>
    <v name="MAGMOM">      1.00000000      1.00000000      1.00000000      1.00000000      1.00000000      1.00000000      1.00000000      1.00000000      1.00000000      1.00000000      1.00000000      1.00000000      1.00000000      1.00000000      1.00000000      1.00000000      1.00000000      1.00000000      1.00000000      1.00000000
      1.00000000      1.00000000      1.00000000      1.00000000      1.00000000      1.00000000      1.00000000      1.00000000      1.00000000      1.00000000      1.00000000      1.00000000</v>
    <i name="NUPDOWN">     -1.00000000</i>
    <i type="logical" name="LSORBIT"> F  </i>
    <v name="SAXIS">      0.00000000      0.00000000      1.00000000</v>
    <i type="logical" name="LSPIRAL"> F  </i>
    <v name="QSPIRAL">      0.00000000      0.00000000      0.00000000</v>
    <i type="logical" name="LZEROZ"> F  </i>
   </separator>
   <separator name="electronic exchange-correlation" >
    <i type="logical" name="LASPH"> F  </i>
    <i type="logical" name="LMETAGGA"> F  </i>
   </separator>
   <separator name="electronic convergence" >
    <i type="int" name="NELM">    60</i>
    <i type="int" name="NELMDL">    -5</i>
    <i type="int" name="NELMIN">     2</i>
    <i name="ENINI">    400.00000000</i>
    <separator name="electronic convergence detail" >
     <i type="logical" name="LDIAG"> T  </i>
     <i type="logical" name="LSUBROT"> F  </i>
     <i name="WEIMIN">      0.00000000</i>
     <i name="EBREAK">      0.00000035</i>
     <i name="DEPER">      0.30000000</i>
     <i type="int" name="NRMM">     4</i>
     <i name="TIME">      0.40000000</i>
    </separator>
   </separator>
   <separator name="electronic mixer" >
    <i name="AMIX">      0.40000000</i>
    <i name="BMIX">      1.00000000</i>
    <i name="AMIN">      0.10000000</i>
    <i name="AMIX_MAG">      1.60000000</i>
    <i name="BMIX_MAG">      1.00000000</i>
    <separator name="electronic mixer details" >
     <i type="int" name="IMIX">     4</i>
     <i type="logical" name="MIXFIRST"> F  </i>
     <i type="int" name="MAXMIX">   -45</i>
     <i name="WC">    100.00000000</i>
     <i type="int" name="INIMIX">     1</i>
     <i type="int" name="MIXPRE">     1</i>
     <i type="int" name="MREMOVE">     5</i>
    </separator>
   </separator>
   <separator name="electronic dipolcorrection" >
    <i type="logical" name="LDIPOL"> F  </i>
    <i type="logical" name="LMONO"> F  </i>
    <i type="int" name="IDIPOL">     0</i>
    <i name="EPSILON">      1.00000000</i>
    <v name="DIPOL">   -100.00000000   -100.00000000   -100.00000000</v>
    <i name="EFIELD">      0.00000000</i>
   </separator>
  </separator>
  <separator name="grids" >
   <i type="int" name="NGX">    42</i>
   <i type="int" name="NGY">    42</i>
   <i type="int" name="NGZ">    42</i>
   <i type="int" name="NGXF">    84</i>
   <i type="int" name="NGYF">    84</i>
   <i type="int" name="NGZF">    84</i>
   <i type="logical" name="ADDGRID"> F  </i>
  </separator>
  <separator name="ionic" >
   <i type="int" name="NSW">     0</i>
   <i type="int" name="IBRION">    -1</i>
   <i type="int" name="MDALGO">     0</i>
   <i type="int" name="ISIF">     2</i>
   <i name="PSTRESS">      0.00000000</i>
   <i name="EDIFFG">      0.00100000</i>
   <i type="int" name="NFREE">     0</i>
   <i name="POTIM">      0.50000000</i>
   <i name="SMASS">     -3.00000000</i>
   <i name="SCALEE">      1.00000000</i>
  </separator>
  <separator name="ionic md" >
   <i name="TEBEG">      0.00010000</i>
   <i name="TEEND">      0.00010000</i>
   <i type="int" name="NBLOCK">     1</i>
   <i type="int" name="KBLOCK">     1</i>
   <i type="int" name="NPACO">   256</i>
   <i name="APACO">     10.00000000</i>
  </separator>
  <separator name="symmetry" >
   <i type="int" name="ISYM">     2</i>
   <i name="SYMPREC">      0.00001000</i>
  </separator>
  <separator name="dos" >
   <i type="int" name="LORBIT">     0</i>
   <v name="RWIGS">     -1.00000000</v>
   <i type="int" name="NEDOS">   301</i>
   <i name="EMIN">     10.00000000</i>
   <i name="EMAX">    -10.00000000</i>
   <i name="EFERMI">      0.00000000</i>
  </separator>
  <separator name="writing" >
   <i type="int" name="NWRITE">     2</i>
   <i type="logical" name="LWAVE"> T  </i>
   <i type="logical" name="LDOWNSAMPLE"> F  </i>
   <i type="logical" name="LCHARG"> T  </i>
   <i type="logical" name="LPARD"> F  </i>
   <i type="logical" name="LVTOT"> F  </i>
   <i type="logical" name="LVHAR"> F  </i>
   <i type="logical" name="LELF"> F  </i>
   <i type="logical" name="LOPTICS"> F  </i>
   <v name="STM">      0.00000000      0.00000000      0.00000000      0.00000000      0.00000000      0.00000000      0.00000000</v>
  </separator>
  <separator name="performance" >
   <i type="int" name="NPAR">    24</i>
   <i type="int" name="NSIM">     4</i>
   <i type="int" name="NBLK">    -1</i>
   <i type="logical" name="LPLANE"> T  </i>
   <i type="logical" name="LSCALAPACK"> T  </i>
   <i type="logical" name="LSCAAWARE"> F  </i>
   <i type="logical" name="LSCALU"> F  </i>
   <i type="logical" name="LASYNC"> F  </i>
   <i type="logical" name="LORBITALREAL"> F  </i>
  </separator>
  <separator name="miscellaneous" >
   <i type="int" name="IDIOT">     3</i>
   <i type="int" name="PHON_NSTRUCT">    -1</i>
   <i type="logical" name="LMUSIC"> F  </i>
   <v name="POMASS">     26.98100000</v>
   <v name="DARWINR">      0.00000000</v>
   <v name="DARWINV">      1.00000000</v>
   <i type="logical" name="LCORR"> T  </i>
  </separator>
  <i type="logical" name="GGA_COMPAT"> T  </i>
  <i type="logical" name="LBERRY"> F  </i>
  <i type="int" name="ICORELEVEL">     0</i>
  <i type="logical" name="LDAU"> F  </i>
  <i type="int" name="I_CONSTRAINED_M">     0</i>
  <separator name="electronic exchange-correlation" >
   <i type="string" name="GGA">--</i>
   <i type="int" name="VOSKOWN">     0</i>
   <i type="logical" name="LHFCALC"> F  </i>
   <i type="string" name="PRECFOCK"></i>
   <i type="logical" name="LSYMGRAD"> F  </i>
   <i type="logical" name="LHFONE"> F  </i>
   <i type="logical" name="LRHFCALC"> F  </i>
   <i type="logical" name="LTHOMAS"> F  </i>
   <i type="logical" name="LMODELHF"> F  </i>
   <i type="logical" name="LFOCKACE"> F  </i>
   <i name="ENCUT4O">     -1.00000000</i>
   <i type="int" name="EXXOEP">     0</i>
   <i type="int" name="FOURORBIT">     0</i>
   <i name="AEXX">      0.00000000</i>
   <i name="HFALPHA">      0.00000000</i>
   <i name="MCALPHA">      0.00000000</i>
   <i name="ALDAX">      1.00000000</i>
   <i name="AGGAX">      1.00000000</i>
   <i name="ALDAC">      1.00000000</i>
   <i name="AGGAC">      1.00000000</i>
   <i type="int" name="NKREDX">     1</i>
   <i type="int" name="NKREDY">     1</i>
   <i type="int" name="NKREDZ">     1</i>
   <i type="logical" name="SHIFTRED"> F  </i>
   <i type="logical" name="ODDONLY"> F  </i>
   <i type="logical" name="EVENONLY"> F  </i>
   <i type="int" name="LMAXFOCK">     0</i>
   <i type="int" name="NMAXFOCKAE">     0</i>
   <i type="logical" name="LFOCKAEDFT"> F  </i>
   <i name="HFSCREEN">      0.00000000</i>
   <i name="HFSCREENC">      0.00000000</i>
   <i type="int" name="NBANDSGWLOW">     0</i>
  </separator>
  <separator name="vdW DFT" >
   <i type="logical" name="LUSE_VDW"> F  </i>
   <i name="Zab_VDW">     -0.84910000</i>
   <i name="PARAM1">      0.12340000</i>
   <i name="PARAM2">      1.00000000</i>
   <i name="PARAM3">      0.00000000</i>
  </separator>
  <separator name="model GW" >
   <i type="int" name="MODEL_GW">     0</i>
   <i name="MODEL_EPS0">     10.79531158</i>
   <i name="MODEL_ALPHA">      1.00000000</i>
  </separator>
  <separator name="linear response parameters" >
   <i type="logical" name="LEPSILON"> F  </i>
   <i type="logical" name="LRPA"> F  </i>
   <i type="logical" name="LNABLA"> F  </i>
   <i type="logical" name="LVEL"> F  </i>
   <i name="CSHIFT">      0.10000000</i>
   <i name="OMEGAMAX">     -1.00000000</i>
   <i name="DEG_THRESHOLD">      0.00200000</i>
   <i name="RTIME">     -0.10000000</i>
   <i name="WPLASMAI">      0.00000000</i>
   <v name="DFIELD">      0.00000000      0.00000000      0.00000000</v>
   <v name="WPLASMA">      0.00000000      0.00000000      0.00000000      0.00000000      0.00000000      0.00000000      0.00000000      0.00000000      0.00000000</v>
  </separator>
  <separator name="orbital magnetization" >
   <i type="logical" name="NUCIND"> F  </i>
   <v name="MAGPOS">      0.00000000      0.00000000      0.00000000</v>
   <i type="logical" name="LNICSALL"> T  </i>
   <i type="logical" name="ORBITALMAG"> F  </i>
   <i type="logical" name="LMAGBLOCH"> F  </i>
   <i type="logical" name="LCHIMAG"> F  </i>
   <i type="logical" name="LGAUGE"> T  </i>
   <i type="int" name="MAGATOM">     0</i>
   <v name="MAGDIPOL">      0.00000000      0.00000000      0.00000000</v>
   <v name="AVECCONST">      0.00000000      0.00000000      0.00000000</v>
  </separator>
  <separator name="response functions" >
   <i type="logical" name="LFINITE_TEMPERATURE"> F  </i>
   <i type="logical" name="LADDER"> F  </i>
   <i type="logical" name="LRPAFORCE"> F  </i>
   <i type="logical" name="LFXC"> F  </i>
   <i type="logical" name="LHARTREE"> T  </i>
   <i type="int" name="IBSE">     0</i>
   <v type="int" name="KPOINT">    -1     0     0     0</v>
   <i type="logical" name="LTCTC"> F  </i>
   <i type="logical" name="LTCTE"> F  </i>
   <i type="logical" name="LTETE"> F  </i>
   <i type="logical" name="LTRIPLET"> F  </i>
   <i type="logical" name="LFXCEPS"> F  </i>
   <i type="logical" name="LFXHEG"> F  </i>
   <i type="int" name="NATURALO">     2</i>
   <i type="logical" name="LHOLEGF"> F  </i>
   <i type="logical" name="L2ORDER"> F  </i>
   <i type="logical" name="LDMP1"> F  </i>
   <i type="logical" name="LMP2LT"> F  </i>
   <i type="logical" name="LSMP2LT"> F  </i>
   <i type="logical" name="LGWLF"> F  </i>
   <i name="ENCUTGW">     -2.00000000</i>
   <i name="ENCUTGWSOFT">     -2.00000000</i>
   <i name="ENCUTLF">     -1.00000000</i>
   <i type="logical" name="LESF_SPLINES"> F  </i>
   <i type="int" name="LMAXMP2">    -1</i>
   <i name="SCISSOR">      0.00000000</i>
   <i type="int" name="NOMEGA">     0</i>
   <i type="int" name="NOMEGAR">     0</i>
   <i type="int" name="NBANDSGW">    -1</i>
   <i type="int" name="NBANDSO">    -1</i>
   <i type="int" name="NBANDSV">    -1</i>
   <i type="int" name="NELMGW">     1</i>
   <i type="int" name="NELMHF">     1</i>
   <i type="int" name="DIM">     3</i>
   <i type="int" name="IESPILON">     4</i>
   <i type="int" name="ANTIRES">     0</i>
   <i name="OMEGAMAX">    -30.00000000</i>
   <i name="OMEGAMIN">    -30.00000000</i>
   <i name="OMEGATL">   -200.00000000</i>
   <i type="int" name="OMEGAGRID">     0</i>
   <i name="CSHIFT">     -0.10000000</i>
   <i type="logical" name="LSELFENERGY"> F  </i>
   <i type="logical" name="LSPECTRAL"> F  </i>
   <i type="logical" name="LSPECTRALGW"> F  </i>
   <i type="logical" name="LSINGLES"> F  </i>
   <i type="logical" name="LFERMIGW"> F  </i>
   <i type="logical" name="ODDONLYGW"> F  </i>
   <i type="logical" name="EVENONLYGW"> F  </i>
   <i type="int" name="NKREDLFX">     1</i>
   <i type="int" name="NKREDLFY">     1</i>
   <i type="int" name="NKREDLFZ">     1</i>
   <i type="int" name="MAXMEM">  2800</i>
   <i type="int" name="TELESCOPE">     0</i>
   <i type="int" name="NTAUPAR">    -1</i>
   <i type="int" name="NOMEGAPAR">    -1</i>
   <i name="DAMP_NEWTON">      0.80000001</i>
   <i name="LAMBDA">      1.00000000</i>
  </separator>
  <separator name="External order field" >
   <i name="OFIELD_KAPPA">      0.00000000</i>
   <v name="OFIELD_K">      0.00000000      0.00000000      0.00000000</v>
   <i name="OFIELD_Q6_NEAR">      0.00000000</i>
   <i name="OFIELD_Q6_FAR">      0.00000000</i>
   <i name="OFIELD_A">      0.00000000</i>
  </separator>
  <separator name="optional k-points parameters" >
   <i type="int" name="KPOINTS_OPT_MODE">     1</i>
   <i type="logical" name="LKPOINTS_OPT"> F  </i>
  </separator>
 </parameters>
 <atominfo>
  <atoms>      32 </atoms>
  <types>       1 </types>
  <array name="atoms" >
   <dimension dim="1">ion</dimension>
   <field type="string">element</field>
   <field type="int">atomtype</field>
   <set>
    <rc><c>Al</c><c>   1</c></rc>
    <rc><c>Al</c><c>   1</c></rc>
    <rc><c>Al</c><c>   1</c></rc>
    <rc><c>Al</c><c>   1</c></rc>
    <rc><c>Al</c><c>   1</c></rc>
    <rc><c>Al</c><c>   1</c></rc>
    <rc><c>Al</c><c>   1</c></rc>
    <rc><c>Al</c><c>   1</c></rc>
    <rc><c>Al</c><c>   1</c></rc>
    <rc><c>Al</c><c>   1</c></rc>
    <rc><c>Al</c><c>   1</c></rc>
    <rc><c>Al</c><c>   1</c></rc>
    <rc><c>Al</c><c>   1</c></rc>
    <rc><c>Al</c><c>   1</c></rc>
    <rc><c>Al</c><c>   1</c></rc>
    <rc><c>Al</c><c>   1</c></rc>
    <rc><c>Al</c><c>   1</c></rc>
    <rc><c>Al</c><c>   1</c></rc>
    <rc><c>Al</c><c>   1</c></rc>
    <rc><c>Al</c><c>   1</c></rc>
    <rc><c>Al</c><c>   1</c></rc>
    <rc><c>Al</c><c>   1</c></rc>
    <rc><c>Al</c><c>   1</c></rc>
    <rc><c>Al</c><c>   1</c></rc>
    <rc><c>Al</c><c>   1</c></rc>
    <rc><c>Al</c><c>   1</c></rc>
    <rc><c>Al</c><c>   1</c></rc>
    <rc><c>Al</c><c>   1</c></rc>
    <rc><c>Al</c><c>   1</c></rc>
    <rc><c>Al</c><c>   1</c></rc>
    <rc><c>Al</c><c>   1</c></rc>
    <rc><c>Al</c><c>   1</c></rc>
   </set>
  </array>
  <array name="atomtypes" >
   <dimension dim="1">type</dimension>
   <field type="int">atomspertype</field>
   <field type="string">element</field>
   <field>mass</field>
   <field>valence</field>
   <field type="string">pseudopotential</field>
   <set>
    <rc><c>  32</c><c>Al</c><c>     26.98100000</c><c>      3.00000000</c><c>  PAW_PBE Al 04Jan2001                  </c></rc>
   </set>
  </array>
 </atominfo>
 <structure name="initialpos" >
  <crystal>
   <varray name="basis" >
    <v>       8.31913113       0.00000000       0.00000000 </v>
    <v>       0.00000000       8.31913113       0.00000000 </v>
    <v>       0.00000000       0.00000000       8.31913113 </v>
   </varray>
   <i name="volume">    575.74995067 </i>
   <varray name="rec_basis" >
    <v>       0.12020486       0.00000000       0.00000000 </v>
    <v>       0.00000000       0.12020486       0.00000000 </v>
    <v>       0.00000000       0.00000000       0.12020486 </v>
   </varray>
  </crystal>
  <varray name="positions" >
   <v>       0.00120205       0.00000000       0.00000000 </v>
   <v>       0.50000000       0.00000000       0.00000000 </v>
   <v>       0.00000000       0.50000000       0.00000000 </v>
   <v>       0.50000000       0.50000000       0.00000000 </v>
   <v>       0.00000000       0.00000000       0.50000000 </v>
   <v>       0.50000000       0.00000000       0.50000000 </v>
   <v>       0.00000000       0.50000000       0.50000000 </v>
   <v>       0.50000000       0.50000000       0.50000000 </v>
   <v>       0.00000000       0.25000000       0.25000000 </v>
   <v>       0.50000000       0.25000000       0.25000000 </v>
   <v>       0.00000000       0.75000000       0.25000000 </v>
   <v>       0.50000000       0.75000000       0.25000000 </v>
   <v>       0.00000000       0.25000000       0.75000000 </v>
   <v>       0.50000000       0.25000000       0.75000000 </v>
   <v>       0.00000000       0.75000000       0.75000000 </v>
   <v>       0.50000000       0.75000000       0.75000000 </v>
   <v>       0.25000000       0.00000000       0.25000000 </v>
   <v>       0.75000000       0.00000000       0.25000000 </v>
   <v>       0.25000000       0.50000000       0.25000000 </v>
   <v>       0.75000000       0.50000000       0.25000000 </v>
   <v>       0.25000000       0.00000000       0.75000000 </v>
   <v>       0.75000000       0.00000000       0.75000000 </v>
   <v>       0.25000000       0.50000000       0.75000000 </v>
   <v>       0.75000000       0.50000000       0.75000000 </v>
   <v>       0.25000000       0.25000000       0.00000000 </v>
   <v>       0.75000000       0.25000000       0.00000000 </v>
   <v>       0.25000000       0.75000000       0.00000000 </v>
   <v>       0.75000000       0.75000000       0.00000000 </v>
   <v>       0.25000000       0.25000000       0.50000000 </v>
   <v>       0.75000000       0.25000000       0.50000000 </v>
   <v>       0.25000000       0.75000000       0.50000000 </v>
   <v>       0.75000000       0.75000000       0.50000000 </v>
  </varray>
 </structure>
 <calculation>
  <scstep>
   <time name="dav">    4.59    4.61</time>
   <time name="total">    4.60    4.63</time>
   <energy>
    <i name="alphaZ">     -5.97381091 </i>
    <i name="ewald">  -2285.58112063 </i>
    <i name="hartreedc">     -4.54311771 </i>
    <i name="XCdc">   -844.57379524 </i>
    <i name="pawpsdc">   2118.40502803 </i>
    <i name="pawaedc">  -1095.85986421 </i>
    <i name="eentropy">     -0.00688881 </i>
    <i name="bandstr">    480.02862701 </i>
    <i name="atom">   1713.22093829 </i>
    <i name="e_fr_energy">     75.11599581 </i>
    <i name="e_wo_entrp">     75.12288462 </i>
    <i name="e_0_energy">     75.11944022 </i>
   </energy>
  </scstep>
  <scstep>
   <time name="dav">    5.30    5.34</time>
   <time name="total">    5.30    5.34</time>
   <energy>
    <i name="e_fr_energy">   -111.58850235 </i>
    <i name="e_wo_entrp">   -111.57180270 </i>
    <i name="e_0_energy">   -111.58015253 </i>
   </energy>
  </scstep>
  <scstep>
   <time name="dav">    5.79    5.83</time>
   <time name="total">    5.80    5.83</time>
   <energy>
    <i name="e_fr_energy">   -119.55239340 </i>
    <i name="e_wo_entrp">   -119.53634321 </i>
    <i name="e_0_energy">   -119.54436831 </i>
   </energy>
  </scstep>
  <scstep>
   <time name="dav">    5.08    5.09</time>
   <time name="total">    5.08    5.10</time>
   <energy>
    <i name="e_fr_energy">   -119.65660666 </i>
    <i name="e_wo_entrp">   -119.64107218 </i>
    <i name="e_0_energy">   -119.64883942 </i>
   </energy>
  </scstep>
  <scstep>
   <time name="dav">    5.72    5.75</time>
   <time name="total">    5.82    5.85</time>
   <energy>
    <i name="e_fr_energy">   -119.65784725 </i>
    <i name="e_wo_entrp">   -119.64232131 </i>
    <i name="e_0_energy">   -119.65008428 </i>
   </energy>
  </scstep>
  <scstep>
   <time name="dav">    5.09    5.11</time>
   <time name="total">    5.20    5.22</time>
   <energy>
    <i name="e_fr_energy">   -119.26206805 </i>
    <i name="e_wo_entrp">   -119.24632182 </i>
    <i name="e_0_energy">   -119.25419493 </i>
   </energy>
  </scstep>
  <scstep>
   <time name="dav">    5.28    5.30</time>
   <time name="total">    5.38    5.41</time>
   <energy>
    <i name="e_fr_energy">   -118.97618792 </i>
    <i name="e_wo_entrp">   -118.96009200 </i>
    <i name="e_0_energy">   -118.96813996 </i>
   </energy>
  </scstep>
  <scstep>
   <time name="dav">    5.55    5.58</time>
   <time name="total">    5.67    5.70</time>
   <energy>
    <i name="e_fr_energy">   -118.97372568 </i>
    <i name="e_wo_entrp">   -118.95759863 </i>
    <i name="e_0_energy">   -118.96566216 </i>
   </energy>
  </scstep>
  <scstep>
   <time name="dav">    4.39    4.40</time>
   <time name="total">    4.40    4.42</time>
   <energy>
    <i name="alphaZ">     -5.97381091 </i>
    <i name="ewald">  -2285.58112063 </i>
    <i name="hartreedc">     -3.19466161 </i>
    <i name="XCdc">   -841.68599645 </i>
    <i name="pawpsdc">   3911.06998677 </i>
    <i name="pawaedc">  -2888.54189976 </i>
    <i name="eentropy">     -0.01613283 </i>
    <i name="bandstr">    281.72902442 </i>
    <i name="atom">   1713.22093829 </i>
    <i name="e_fr_energy">   -118.97367271 </i>
    <i name="e_wo_entrp">   -118.95753987 </i>
    <i name="e_0_energy">   -118.96560629 </i>
   </energy>
  </scstep>
  <structure>
   <crystal>
    <varray name="basis" >
     <v>       8.31913113       0.00000000       0.00000000 </v>
     <v>       0.00000000       8.31913113       0.00000000 </v>
     <v>       0.00000000       0.00000000       8.31913113 </v>
    </varray>
    <i name="volume">    575.74995067 </i>
    <varray name="rec_basis" >
     <v>       0.12020486       0.00000000       0.00000000 </v>
     <v>       0.00000000       0.12020486       0.00000000 </v>
     <v>       0.00000000       0.00000000       0.12020486 </v>
    </varray>
   </crystal>
   <varray name="positions" >
    <v>       0.00120205       0.00000000       0.00000000 </v>
    <v>       0.50000000       0.00000000       0.00000000 </v>
    <v>       0.00000000       0.50000000       0.00000000 </v>
    <v>       0.50000000       0.50000000       0.00000000 </v>
    <v>       0.00000000       0.00000000       0.50000000 </v>
    <v>       0.50000000       0.00000000       0.50000000 </v>
    <v>       0.00000000       0.50000000       0.50000000 </v>
    <v>       0.50000000       0.50000000       0.50000000 </v>
    <v>       0.00000000       0.25000000       0.25000000 </v>
    <v>       0.50000000       0.25000000       0.25000000 </v>
    <v>       0.00000000       0.75000000       0.25000000 </v>
    <v>       0.50000000       0.75000000       0.25000000 </v>
    <v>       0.00000000       0.25000000       0.75000000 </v>
    <v>       0.50000000       0.25000000       0.75000000 </v>
    <v>       0.00000000       0.75000000       0.75000000 </v>
    <v>       0.50000000       0.75000000       0.75000000 </v>
    <v>       0.25000000       0.00000000       0.25000000 </v>
    <v>       0.75000000       0.00000000       0.25000000 </v>
    <v>       0.25000000       0.50000000       0.25000000 </v>
    <v>       0.75000000       0.50000000       0.25000000 </v>
    <v>       0.25000000       0.00000000       0.75000000 </v>
    <v>       0.75000000       0.00000000       0.75000000 </v>
    <v>       0.25000000       0.50000000       0.75000000 </v>
    <v>       0.75000000       0.50000000       0.75000000 </v>
    <v>       0.25000000       0.25000000       0.00000000 </v>
    <v>       0.75000000       0.25000000       0.00000000 </v>
    <v>       0.25000000       0.75000000       0.00000000 </v>
    <v>       0.75000000       0.75000000       0.00000000 </v>
    <v>       0.25000000       0.25000000       0.50000000 </v>
    <v>       0.75000000       0.25000000       0.50000000 </v>
    <v>       0.25000000       0.75000000       0.50000000 </v>
    <v>       0.75000000       0.75000000       0.50000000 </v>
   </varray>
  </structure>
  <varray name="forces" >
   <v>      -0.03096708      -0.00000000      -0.00000000 </v>
   <v>       0.00203399       0.00000000      -0.00000000 </v>
   <v>      -0.00054853       0.00000000       0.00000000 </v>
   <v>       0.00061548      -0.00000000      -0.00000000 </v>
   <v>      -0.00054853      -0.00000000       0.00000000 </v>
   <v>       0.00061548       0.00000000       0.00000000 </v>
   <v>      -0.00023581       0.00000000       0.00000000 </v>
   <v>      -0.00107128      -0.00000000       0.00000000 </v>
   <v>      -0.00143866      -0.00000577      -0.00000577 </v>
   <v>      -0.00033556       0.00000398       0.00000398 </v>
   <v>      -0.00143866       0.00000577      -0.00000577 </v>
   <v>      -0.00033556      -0.00000398       0.00000398 </v>
   <v>      -0.00143866      -0.00000577       0.00000577 </v>
   <v>      -0.00033556       0.00000398      -0.00000398 </v>
   <v>      -0.00143866       0.00000577       0.00000577 </v>
   <v>      -0.00033556      -0.00000398      -0.00000398 </v>
   <v>       0.00445257       0.00000000       0.00450431 </v>
   <v>       0.00434189       0.00000000      -0.00432298 </v>
   <v>       0.00025382      -0.00000000      -0.00006069 </v>
   <v>       0.00025251      -0.00000000       0.00006199 </v>
   <v>       0.00445257      -0.00000000      -0.00450431 </v>
   <v>       0.00434189       0.00000000       0.00432298 </v>
   <v>       0.00025382      -0.00000000       0.00006069 </v>
   <v>       0.00025251       0.00000000      -0.00006199 </v>
   <v>       0.00445257       0.00450431      -0.00000000 </v>
   <v>       0.00434189      -0.00432298      -0.00000000 </v>
   <v>       0.00445257      -0.00450431       0.00000000 </v>
   <v>       0.00434189       0.00432298       0.00000000 </v>
   <v>       0.00025382      -0.00006069      -0.00000000 </v>
   <v>       0.00025251       0.00006199       0.00000000 </v>
   <v>       0.00025382       0.00006069      -0.00000000 </v>
   <v>       0.00025251      -0.00006199       0.00000000 </v>
  </varray>
  <varray name="stress" >
   <v>     -56.22120591       0.00000000       0.00000000 </v>
   <v>       0.00000000     -56.22211035       0.00000000 </v>
   <v>       0.00000000       0.00000000     -56.22211035 </v>
  </varray>
  <energy>
   <i name="e_fr_energy">   -118.97367271 </i>
   <i name="e_wo_entrp">   -118.95753987 </i>
   <i name="e_0_energy">   -118.96560629 </i>
  </energy>
  <time name="totalsc">   56.05   56.83</time>
  <eigenvalues>
   <array>
    <dimension dim="1">band</dimension>
    <dimension dim="2">kpoint</dimension>
    <dimension dim="3">spin</dimension>
    <field>eigene</field>
    <field>occ</field>
    <set>
     <set comment="spin 1">
      <set comment="kpoint 1">
       <r>   -3.4234    1.0000 </r>
       <r>   -1.3024    1.0000 </r>
       <r>   -1.2988    1.0000 </r>
       <r>   -1.2988    1.0000 </r>
       <r>   -1.2988    1.0000 </r>
       <r>   -1.2988    1.0000 </r>
       <r>   -1.2953    1.0000 </r>
       <r>    0.7908    1.0000 </r>
       <r>    0.7952    1.0000 </r>
       <r>    0.7952    1.0000 </r>
       <r>    0.7967    1.0000 </r>
       <r>    0.7969    1.0000 </r>
       <r>    0.7969    1.0000 </r>
       <r>    0.7969    1.0000 </r>
       <r>    0.7969    1.0000 </r>
       <r>    0.7971    1.0000 </r>
       <r>    0.7986    1.0000 </r>
       <r>    0.7986    1.0000 </r>
       <r>    0.8030    1.0000 </r>
       <r>    2.8582    1.0000 </r>
       <r>    2.8585    1.0000 </r>
       <r>    2.8585    1.0000 </r>
       <r>    2.8586    1.0000 </r>
       <r>    2.8737    1.0000 </r>
       <r>    2.8738    1.0000 </r>
       <r>    2.8738    1.0000 </r>
       <r>    2.8741    1.0000 </r>
       <r>    4.4116    1.0000 </r>
       <r>    4.4116    1.0000 </r>
       <r>    4.4116    1.0000 </r>
       <r>    5.5265    1.0000 </r>
       <r>    5.5266    1.0000 </r>
       <r>    5.5266    1.0000 </r>
       <r>    6.3861    1.0000 </r>
       <r>    6.3861    1.0000 </r>
       <r>    6.3902    1.0000 </r>
       <r>    6.3902    1.0000 </r>
       <r>    6.3903    1.0000 </r>
       <r>    6.3903    1.0000 </r>
       <r>    6.3903    1.0000 </r>
       <r>    6.3904    1.0000 </r>
       <r>    6.3904    1.0000 </r>
       <r>    6.3904    1.0000 </r>
       <r>    6.3946    1.0000 </r>
       <r>    6.3946    1.0000 </r>
       <r>    7.4387    0.0000 </r>
       <r>    7.4426    0.0000 </r>
       <r>    7.4426    0.0000 </r>
       <r>    7.4427    0.0000 </r>
       <r>    7.4427    0.0000 </r>
       <r>    7.4466    0.0000 </r>
       <r>    7.7687    0.0000 </r>
       <r>    7.7696    0.0000 </r>
       <r>    7.7696    0.0000 </r>
       <r>    7.7696    0.0000 </r>
       <r>    7.7696    0.0000 </r>
       <r>    7.7705    0.0000 </r>
       <r>    8.3678    0.0000 </r>
       <r>    8.3678    0.0000 </r>
       <r>    8.3696    0.0000 </r>
       <r>    8.3716    0.0000 </r>
       <r>    8.3718    0.0000 </r>
       <r>    8.3718    0.0000 </r>
       <r>    8.3718    0.0000 </r>
       <r>    8.3718    0.0000 </r>
       <r>    8.3719    0.0000 </r>
       <r>    8.3740    0.0000 </r>
       <r>    8.3758    0.0000 </r>
       <r>    8.3758    0.0000 </r>
       <r>    9.6160    0.0000 </r>
       <r>    9.6176    0.0000 </r>
       <r>    9.6182    0.0000 </r>
      </set>
      <set comment="kpoint 2">
       <r>   -3.3900    1.0000 </r>
       <r>   -1.7941    1.0000 </r>
       <r>   -1.2659    1.0000 </r>
       <r>   -1.2659    1.0000 </r>
       <r>   -1.2659    1.0000 </r>
       <r>   -1.2659    1.0000 </r>
       <r>   -0.7396    1.0000 </r>
       <r>    0.3082    1.0000 </r>
       <r>    0.3082    1.0000 </r>
       <r>    0.3082    1.0000 </r>
       <r>    0.3082    1.0000 </r>
       <r>    0.8294    1.0000 </r>
       <r>    0.8294    1.0000 </r>
       <r>    0.8294    1.0000 </r>
       <r>    0.8294    1.0000 </r>
       <r>    1.3487    1.0000 </r>
       <r>    1.3487    1.0000 </r>
       <r>    1.3487    1.0000 </r>
       <r>    1.3488    1.0000 </r>
       <r>    2.3835    1.0000 </r>
       <r>    2.3835    1.0000 </r>
       <r>    2.3835    1.0000 </r>
       <r>    2.3835    1.0000 </r>
       <r>    3.4113    1.0000 </r>
       <r>    3.4113    1.0000 </r>
       <r>    3.4113    1.0000 </r>
       <r>    3.4113    1.0000 </r>
       <r>    3.8322    1.0000 </r>
       <r>    4.4425    1.0000 </r>
       <r>    4.4425    1.0000 </r>
       <r>    5.5595    1.0000 </r>
       <r>    5.5595    1.0000 </r>
       <r>    5.8431    1.0000 </r>
       <r>    5.8431    1.0000 </r>
       <r>    5.8431    1.0000 </r>
       <r>    5.8431    1.0000 </r>
       <r>    5.9261    1.0000 </r>
       <r>    5.9261    1.0000 </r>
       <r>    6.1647    1.0000 </r>
       <r>    6.4213    1.0000 </r>
       <r>    6.4213    1.0000 </r>
       <r>    6.4213    1.0000 </r>
       <r>    6.4213    1.0000 </r>
       <r>    6.9168    1.0000 </r>
       <r>    6.9168    1.0000 </r>
       <r>    7.1009    0.6589 </r>
       <r>    7.1009    0.6589 </r>
       <r>    7.6059    0.0000 </r>
       <r>    7.6060    0.0000 </r>
       <r>    7.6060    0.0000 </r>
       <r>    7.6060    0.0000 </r>
       <r>    7.8453    0.0000 </r>
       <r>    7.8453    0.0000 </r>
       <r>    7.8453    0.0000 </r>
       <r>    7.8453    0.0000 </r>
       <r>    7.9071    0.0000 </r>
       <r>    7.9072    0.0000 </r>
       <r>    7.9072    0.0000 </r>
       <r>    7.9072    0.0000 </r>
       <r>    8.1695    0.0000 </r>
       <r>    8.1695    0.0000 </r>
       <r>    8.2426    0.0000 </r>
       <r>    8.2426    0.0000 </r>
       <r>    8.2426    0.0000 </r>
       <r>    8.2426    0.0000 </r>
       <r>    8.8984    0.0000 </r>
       <r>    8.8984    0.0000 </r>
       <r>    8.8984    0.0000 </r>
       <r>    8.8984    0.0000 </r>
       <r>    9.1520    0.0000 </r>
       <r>    9.1520    0.0000 </r>
       <r>    9.1520    0.0000 </r>
      </set>
      <set comment="kpoint 3">
       <r>   -3.3900    1.0000 </r>
       <r>   -1.7941    1.0000 </r>
       <r>   -1.2686    1.0000 </r>
       <r>   -1.2659    1.0000 </r>
       <r>   -1.2659    1.0000 </r>
       <r>   -1.2631    1.0000 </r>
       <r>   -0.7396    1.0000 </r>
       <r>    0.3055    1.0000 </r>
       <r>    0.3082    1.0000 </r>
       <r>    0.3082    1.0000 </r>
       <r>    0.3110    1.0000 </r>
       <r>    0.8272    1.0000 </r>
       <r>    0.8283    1.0000 </r>
       <r>    0.8305    1.0000 </r>
       <r>    0.8316    1.0000 </r>
       <r>    1.3460    1.0000 </r>
       <r>    1.3487    1.0000 </r>
       <r>    1.3487    1.0000 </r>
       <r>    1.3515    1.0000 </r>
       <r>    2.3813    1.0000 </r>
       <r>    2.3824    1.0000 </r>
       <r>    2.3846    1.0000 </r>
       <r>    2.3856    1.0000 </r>
       <r>    3.4091    1.0000 </r>
       <r>    3.4102    1.0000 </r>
       <r>    3.4124    1.0000 </r>
       <r>    3.4135    1.0000 </r>
       <r>    3.8322    1.0000 </r>
       <r>    4.4425    1.0000 </r>
       <r>    4.4425    1.0000 </r>
       <r>    5.5595    1.0000 </r>
       <r>    5.5595    1.0000 </r>
       <r>    5.8401    1.0000 </r>
       <r>    5.8431    1.0000 </r>
       <r>    5.8431    1.0000 </r>
       <r>    5.8460    1.0000 </r>
       <r>    5.9261    1.0000 </r>
       <r>    5.9262    1.0000 </r>
       <r>    6.1647    1.0000 </r>
       <r>    6.4187    1.0000 </r>
       <r>    6.4213    1.0000 </r>
       <r>    6.4213    1.0000 </r>
       <r>    6.4239    1.0000 </r>
       <r>    6.9168    1.0000 </r>
       <r>    6.9168    1.0000 </r>
       <r>    7.1009    0.6591 </r>
       <r>    7.1009    0.6587 </r>
       <r>    7.6037    0.0000 </r>
       <r>    7.6060    0.0000 </r>
       <r>    7.6060    0.0000 </r>
       <r>    7.6082    0.0000 </r>
       <r>    7.8428    0.0000 </r>
       <r>    7.8442    0.0000 </r>
       <r>    7.8463    0.0000 </r>
       <r>    7.8478    0.0000 </r>
       <r>    7.9045    0.0000 </r>
       <r>    7.9071    0.0000 </r>
       <r>    7.9072    0.0000 </r>
       <r>    7.9098    0.0000 </r>
       <r>    8.1695    0.0000 </r>
       <r>    8.1695    0.0000 </r>
       <r>    8.2405    0.0000 </r>
       <r>    8.2426    0.0000 </r>
       <r>    8.2426    0.0000 </r>
       <r>    8.2447    0.0000 </r>
       <r>    8.8958    0.0000 </r>
       <r>    8.8984    0.0000 </r>
       <r>    8.8985    0.0000 </r>
       <r>    8.9011    0.0000 </r>
       <r>    9.1500    0.0000 </r>
       <r>    9.1520    0.0000 </r>
       <r>    9.1536    0.0000 </r>
      </set>
      <set comment="kpoint 4">
       <r>   -3.2897    1.0000 </r>
       <r>   -2.2247    1.0000 </r>
       <r>   -1.1671    1.0000 </r>
       <r>   -1.1670    1.0000 </r>
       <r>   -1.1670    1.0000 </r>
       <r>   -1.1670    1.0000 </r>
       <r>   -0.1194    1.0000 </r>
       <r>   -0.1165    1.0000 </r>
       <r>   -0.1165    1.0000 </r>
       <r>   -0.1165    1.0000 </r>
       <r>   -0.1143    1.0000 </r>
       <r>    0.9270    1.0000 </r>
       <r>    0.9270    1.0000 </r>
       <r>    0.9270    1.0000 </r>
       <r>    0.9270    1.0000 </r>
       <r>    1.9601    1.0000 </r>
       <r>    1.9621    1.0000 </r>
       <r>    1.9621    1.0000 </r>
       <r>    1.9629    1.0000 </r>
       <r>    1.9640    1.0000 </r>
       <r>    1.9648    1.0000 </r>
       <r>    1.9648    1.0000 </r>
       <r>    1.9668    1.0000 </r>
       <r>    2.9640    1.0000 </r>
       <r>    4.0180    1.0000 </r>
       <r>    4.0180    1.0000 </r>
       <r>    4.0180    1.0000 </r>
       <r>    4.0180    1.0000 </r>
       <r>    4.5351    1.0000 </r>
       <r>    4.5351    1.0000 </r>
       <r>    4.9976    1.0000 </r>
       <r>    4.9976    1.0000 </r>
       <r>    4.9976    1.0000 </r>
       <r>    4.9976    1.0000 </r>
       <r>    5.5240    1.0000 </r>
       <r>    5.5240    1.0000 </r>
       <r>    5.6579    1.0000 </r>
       <r>    5.6579    1.0000 </r>
       <r>    6.5141    1.0000 </r>
       <r>    6.5141    1.0000 </r>
       <r>    6.5141    1.0000 </r>
       <r>    6.5141    1.0000 </r>
       <r>    6.6942    1.0000 </r>
       <r>    6.6943    1.0000 </r>
       <r>    7.0148    0.9978 </r>
       <r>    7.0148    0.9978 </r>
       <r>    7.0148    0.9978 </r>
       <r>    7.0148    0.9978 </r>
       <r>    7.2086    0.0042 </r>
       <r>    7.5028    0.0000 </r>
       <r>    7.5028    0.0000 </r>
       <r>    7.5046    0.0000 </r>
       <r>    7.5046    0.0000 </r>
       <r>    7.5074    0.0000 </r>
       <r>    7.5074    0.0000 </r>
       <r>    7.7238    0.0000 </r>
       <r>    7.7238    0.0000 </r>
       <r>    7.7238    0.0000 </r>
       <r>    7.7238    0.0000 </r>
       <r>    8.7444    0.0000 </r>
       <r>    8.7445    0.0000 </r>
       <r>    8.7448    0.0000 </r>
       <r>    8.7448    0.0000 </r>
       <r>    8.7500    0.0000 </r>
       <r>    8.7500    0.0000 </r>
       <r>    9.2369    0.0000 </r>
       <r>    9.2369    0.0000 </r>
       <r>    9.2369    0.0000 </r>
       <r>    9.2369    0.0000 </r>
       <r>    9.4870    0.0000 </r>
       <r>    9.4870    0.0000 </r>
       <r>    9.4871    0.0000 </r>
      </set>
      <set comment="kpoint 5">
       <r>   -3.2897    1.0000 </r>
       <r>   -2.2247    1.0000 </r>
       <r>   -1.1698    1.0000 </r>
       <r>   -1.1670    1.0000 </r>
       <r>   -1.1670    1.0000 </r>
       <r>   -1.1643    1.0000 </r>
       <r>   -0.1195    1.0000 </r>
       <r>   -0.1172    1.0000 </r>
       <r>   -0.1165    1.0000 </r>
       <r>   -0.1165    1.0000 </r>
       <r>   -0.1137    1.0000 </r>
       <r>    0.9248    1.0000 </r>
       <r>    0.9259    1.0000 </r>
       <r>    0.9281    1.0000 </r>
       <r>    0.9291    1.0000 </r>
       <r>    1.9597    1.0000 </r>
       <r>    1.9621    1.0000 </r>
       <r>    1.9624    1.0000 </r>
       <r>    1.9629    1.0000 </r>
       <r>    1.9633    1.0000 </r>
       <r>    1.9651    1.0000 </r>
       <r>    1.9652    1.0000 </r>
       <r>    1.9668    1.0000 </r>
       <r>    2.9640    1.0000 </r>
       <r>    4.0158    1.0000 </r>
       <r>    4.0169    1.0000 </r>
       <r>    4.0191    1.0000 </r>
       <r>    4.0202    1.0000 </r>
       <r>    4.5351    1.0000 </r>
       <r>    4.5352    1.0000 </r>
       <r>    4.9947    1.0000 </r>
       <r>    4.9976    1.0000 </r>
       <r>    4.9976    1.0000 </r>
       <r>    5.0005    1.0000 </r>
       <r>    5.5240    1.0000 </r>
       <r>    5.5240    1.0000 </r>
       <r>    5.6579    1.0000 </r>
       <r>    5.6579    1.0000 </r>
       <r>    6.5115    1.0000 </r>
       <r>    6.5141    1.0000 </r>
       <r>    6.5141    1.0000 </r>
       <r>    6.5167    1.0000 </r>
       <r>    6.6942    1.0000 </r>
       <r>    6.6943    1.0000 </r>
       <r>    7.0124    0.9982 </r>
       <r>    7.0137    0.9980 </r>
       <r>    7.0159    0.9976 </r>
       <r>    7.0171    0.9973 </r>
       <r>    7.2086    0.0042 </r>
       <r>    7.5017    0.0000 </r>
       <r>    7.5046    0.0000 </r>
       <r>    7.5046    0.0000 </r>
       <r>    7.5054    0.0000 </r>
       <r>    7.5057    0.0000 </r>
       <r>    7.5078    0.0000 </r>
       <r>    7.7217    0.0000 </r>
       <r>    7.7238    0.0000 </r>
       <r>    7.7238    0.0000 </r>
       <r>    7.7259    0.0000 </r>
       <r>    8.7427    0.0000 </r>
       <r>    8.7448    0.0000 </r>
       <r>    8.7448    0.0000 </r>
       <r>    8.7467    0.0000 </r>
       <r>    8.7496    0.0000 </r>
       <r>    8.7498    0.0000 </r>
       <r>    9.2344    0.0000 </r>
       <r>    9.2369    0.0000 </r>
       <r>    9.2369    0.0000 </r>
       <r>    9.2394    0.0000 </r>
       <r>    9.4852    0.0000 </r>
       <r>    9.4870    0.0000 </r>
       <r>    9.4878    0.0000 </r>
      </set>
      <set comment="kpoint 6">
       <r>   -3.1228    1.0000 </r>
       <r>   -2.5900    1.0000 </r>
       <r>   -1.0025    1.0000 </r>
       <r>   -1.0024    1.0000 </r>
       <r>   -1.0024    1.0000 </r>
       <r>   -1.0024    1.0000 </r>
       <r>   -0.4769    1.0000 </r>
       <r>   -0.4769    1.0000 </r>
       <r>   -0.4769    1.0000 </r>
       <r>   -0.4769    1.0000 </r>
       <r>    0.5671    1.0000 </r>
       <r>    1.0894    1.0000 </r>
       <r>    1.0894    1.0000 </r>
       <r>    1.0894    1.0000 </r>
       <r>    1.0894    1.0000 </r>
       <r>    1.6082    1.0000 </r>
       <r>    1.6082    1.0000 </r>
       <r>    1.6082    1.0000 </r>
       <r>    1.6082    1.0000 </r>
       <r>    2.1132    1.0000 </r>
       <r>    2.6380    1.0000 </r>
       <r>    2.6380    1.0000 </r>
       <r>    2.6380    1.0000 </r>
       <r>    2.6380    1.0000 </r>
       <r>    4.1618    1.0000 </r>
       <r>    4.1618    1.0000 </r>
       <r>    4.1618    1.0000 </r>
       <r>    4.1618    1.0000 </r>
       <r>    4.6847    1.0000 </r>
       <r>    4.6847    1.0000 </r>
       <r>    4.6851    1.0000 </r>
       <r>    4.6851    1.0000 </r>
       <r>    4.6899    1.0000 </r>
       <r>    4.6899    1.0000 </r>
       <r>    5.1839    1.0000 </r>
       <r>    5.1839    1.0000 </r>
       <r>    5.8216    1.0000 </r>
       <r>    5.8216    1.0000 </r>
       <r>    6.1902    1.0000 </r>
       <r>    6.1902    1.0000 </r>
       <r>    6.1902    1.0000 </r>
       <r>    6.1902    1.0000 </r>
       <r>    6.3414    1.0000 </r>
       <r>    6.3415    1.0000 </r>
       <r>    6.6688    1.0000 </r>
       <r>    6.6688    1.0000 </r>
       <r>    6.6688    1.0000 </r>
       <r>    6.6688    1.0000 </r>
       <r>    7.1640    0.0844 </r>
       <r>    7.1640    0.0844 </r>
       <r>    7.1640    0.0844 </r>
       <r>    7.1640    0.0844 </r>
       <r>    7.8877    0.0000 </r>
       <r>    7.8877    0.0000 </r>
       <r>    7.8877    0.0000 </r>
       <r>    7.8877    0.0000 </r>
       <r>    8.1567    0.0000 </r>
       <r>    8.1567    0.0000 </r>
       <r>    8.3520    0.0000 </r>
       <r>    8.3977    0.0000 </r>
       <r>    8.3977    0.0000 </r>
       <r>    8.3977    0.0000 </r>
       <r>    8.3977    0.0000 </r>
       <r>    9.3880    0.0000 </r>
       <r>    9.3880    0.0000 </r>
       <r>    9.6462    0.0000 </r>
       <r>    9.6462    0.0000 </r>
       <r>   10.1376    0.0000 </r>
       <r>   10.1376    0.0000 </r>
       <r>   10.1376    0.0000 </r>
       <r>   10.1376    0.0000 </r>
       <r>   10.3510    0.0000 </r>
      </set>
      <set comment="kpoint 7">
       <r>   -3.1228    1.0000 </r>
       <r>   -2.5900    1.0000 </r>
       <r>   -1.0052    1.0000 </r>
       <r>   -1.0024    1.0000 </r>
       <r>   -1.0024    1.0000 </r>
       <r>   -0.9997    1.0000 </r>
       <r>   -0.4797    1.0000 </r>
       <r>   -0.4769    1.0000 </r>
       <r>   -0.4769    1.0000 </r>
       <r>   -0.4741    1.0000 </r>
       <r>    0.5671    1.0000 </r>
       <r>    1.0872    1.0000 </r>
       <r>    1.0883    1.0000 </r>
       <r>    1.0905    1.0000 </r>
       <r>    1.0916    1.0000 </r>
       <r>    1.6061    1.0000 </r>
       <r>    1.6071    1.0000 </r>
       <r>    1.6093    1.0000 </r>
       <r>    1.6104    1.0000 </r>
       <r>    2.1132    1.0000 </r>
       <r>    2.6352    1.0000 </r>
       <r>    2.6380    1.0000 </r>
       <r>    2.6380    1.0000 </r>
       <r>    2.6408    1.0000 </r>
       <r>    4.1589    1.0000 </r>
       <r>    4.1618    1.0000 </r>
       <r>    4.1618    1.0000 </r>
       <r>    4.1646    1.0000 </r>
       <r>    4.6826    1.0000 </r>
       <r>    4.6838    1.0000 </r>
       <r>    4.6860    1.0000 </r>
       <r>    4.6868    1.0000 </r>
       <r>    4.6899    1.0000 </r>
       <r>    4.6902    1.0000 </r>
       <r>    5.1839    1.0000 </r>
       <r>    5.1839    1.0000 </r>
       <r>    5.8216    1.0000 </r>
       <r>    5.8216    1.0000 </r>
       <r>    6.1879    1.0000 </r>
       <r>    6.1891    1.0000 </r>
       <r>    6.1913    1.0000 </r>
       <r>    6.1925    1.0000 </r>
       <r>    6.3414    1.0000 </r>
       <r>    6.3414    1.0000 </r>
       <r>    6.6662    1.0000 </r>
       <r>    6.6688    1.0000 </r>
       <r>    6.6688    1.0000 </r>
       <r>    6.6714    1.0000 </r>
       <r>    7.1614    0.0964 </r>
       <r>    7.1640    0.0844 </r>
       <r>    7.1641    0.0843 </r>
       <r>    7.1667    0.0734 </r>
       <r>    7.8856    0.0000 </r>
       <r>    7.8877    0.0000 </r>
       <r>    7.8877    0.0000 </r>
       <r>    7.8897    0.0000 </r>
       <r>    8.1567    0.0000 </r>
       <r>    8.1567    0.0000 </r>
       <r>    8.3520    0.0000 </r>
       <r>    8.3957    0.0000 </r>
       <r>    8.3977    0.0000 </r>
       <r>    8.3977    0.0000 </r>
       <r>    8.3998    0.0000 </r>
       <r>    9.3880    0.0000 </r>
       <r>    9.3880    0.0000 </r>
       <r>    9.6462    0.0000 </r>
       <r>    9.6462    0.0000 </r>
       <r>   10.1349    0.0000 </r>
       <r>   10.1376    0.0000 </r>
       <r>   10.1376    0.0000 </r>
       <r>   10.1403    0.0000 </r>
       <r>   10.3498    0.0000 </r>
      </set>
      <set comment="kpoint 8">
       <r>   -2.8909    1.0000 </r>
       <r>   -2.8881    1.0000 </r>
       <r>   -0.7762    1.0000 </r>
       <r>   -0.7731    1.0000 </r>
       <r>   -0.7731    1.0000 </r>
       <r>   -0.7724    1.0000 </r>
       <r>   -0.7722    1.0000 </r>
       <r>   -0.7715    1.0000 </r>
       <r>   -0.7715    1.0000 </r>
       <r>   -0.7685    1.0000 </r>
       <r>    1.3091    1.0000 </r>
       <r>    1.3117    1.0000 </r>
       <r>    1.3153    1.0000 </r>
       <r>    1.3153    1.0000 </r>
       <r>    1.3153    1.0000 </r>
       <r>    1.3162    1.0000 </r>
       <r>    1.3170    1.0000 </r>
       <r>    1.3179    1.0000 </r>
       <r>    1.3179    1.0000 </r>
       <r>    1.3203    1.0000 </r>
       <r>    3.3710    1.0000 </r>
       <r>    3.3714    1.0000 </r>
       <r>    3.3714    1.0000 </r>
       <r>    3.3721    1.0000 </r>
       <r>    3.3723    1.0000 </r>
       <r>    3.3730    1.0000 </r>
       <r>    3.3730    1.0000 </r>
       <r>    3.3734    1.0000 </r>
       <r>    4.9043    1.0000 </r>
       <r>    4.9043    1.0000 </r>
       <r>    4.9073    1.0000 </r>
       <r>    4.9073    1.0000 </r>
       <r>    5.4093    1.0000 </r>
       <r>    5.4093    1.0000 </r>
       <r>    5.4099    1.0000 </r>
       <r>    5.4101    1.0000 </r>
       <r>    5.4107    1.0000 </r>
       <r>    5.4108    1.0000 </r>
       <r>    5.4115    1.0000 </r>
       <r>    5.4115    1.0000 </r>
       <r>    6.0480    1.0000 </r>
       <r>    6.0489    1.0000 </r>
       <r>    6.0508    1.0000 </r>
       <r>    6.0516    1.0000 </r>
       <r>    6.8831    1.0000 </r>
       <r>    6.8831    1.0000 </r>
       <r>    6.8841    1.0000 </r>
       <r>    6.8853    1.0000 </r>
       <r>    6.8856    1.0000 </r>
       <r>    6.8868    1.0000 </r>
       <r>    6.8877    1.0000 </r>
       <r>    6.8877    1.0000 </r>
       <r>    8.1096    0.0000 </r>
       <r>    8.1108    0.0000 </r>
       <r>    8.1108    0.0000 </r>
       <r>    8.1109    0.0000 </r>
       <r>    8.1129    0.0000 </r>
       <r>    8.1130    0.0000 </r>
       <r>    8.1130    0.0000 </r>
       <r>    8.1142    0.0000 </r>
       <r>    8.8692    0.0000 </r>
       <r>    8.8692    0.0000 </r>
       <r>    8.8714    0.0000 </r>
       <r>    8.8714    0.0000 </r>
       <r>    9.5617    0.0000 </r>
       <r>    9.5632    0.0000 </r>
       <r>   10.0691    0.0000 </r>
       <r>   10.0698    0.0000 </r>
       <r>   10.0709    0.0000 </r>
       <r>   10.0715    0.0000 </r>
       <r>   10.8488    0.0000 </r>
       <r>   10.8505    0.0000 </r>
      </set>
      <set comment="kpoint 9">
       <r>   -2.8895    1.0000 </r>
       <r>   -2.8895    1.0000 </r>
       <r>   -0.7773    1.0000 </r>
       <r>   -0.7728    1.0000 </r>
       <r>   -0.7723    1.0000 </r>
       <r>   -0.7723    1.0000 </r>
       <r>   -0.7723    1.0000 </r>
       <r>   -0.7723    1.0000 </r>
       <r>   -0.7718    1.0000 </r>
       <r>   -0.7673    1.0000 </r>
       <r>    1.3099    1.0000 </r>
       <r>    1.3114    1.0000 </r>
       <r>    1.3140    1.0000 </r>
       <r>    1.3146    1.0000 </r>
       <r>    1.3162    1.0000 </r>
       <r>    1.3164    1.0000 </r>
       <r>    1.3168    1.0000 </r>
       <r>    1.3172    1.0000 </r>
       <r>    1.3186    1.0000 </r>
       <r>    1.3209    1.0000 </r>
       <r>    3.3692    1.0000 </r>
       <r>    3.3696    1.0000 </r>
       <r>    3.3722    1.0000 </r>
       <r>    3.3722    1.0000 </r>
       <r>    3.3722    1.0000 </r>
       <r>    3.3722    1.0000 </r>
       <r>    3.3748    1.0000 </r>
       <r>    3.3752    1.0000 </r>
       <r>    4.9058    1.0000 </r>
       <r>    4.9058    1.0000 </r>
       <r>    4.9058    1.0000 </r>
       <r>    4.9058    1.0000 </r>
       <r>    5.4076    1.0000 </r>
       <r>    5.4087    1.0000 </r>
       <r>    5.4091    1.0000 </r>
       <r>    5.4095    1.0000 </r>
       <r>    5.4113    1.0000 </r>
       <r>    5.4117    1.0000 </r>
       <r>    5.4120    1.0000 </r>
       <r>    5.4132    1.0000 </r>
       <r>    6.0498    1.0000 </r>
       <r>    6.0498    1.0000 </r>
       <r>    6.0498    1.0000 </r>
       <r>    6.0498    1.0000 </r>
       <r>    6.8806    1.0000 </r>
       <r>    6.8850    1.0000 </r>
       <r>    6.8854    1.0000 </r>
       <r>    6.8854    1.0000 </r>
       <r>    6.8854    1.0000 </r>
       <r>    6.8855    1.0000 </r>
       <r>    6.8859    1.0000 </r>
       <r>    6.8902    1.0000 </r>
       <r>    8.1081    0.0000 </r>
       <r>    8.1114    0.0000 </r>
       <r>    8.1119    0.0000 </r>
       <r>    8.1119    0.0000 </r>
       <r>    8.1119    0.0000 </r>
       <r>    8.1119    0.0000 </r>
       <r>    8.1123    0.0000 </r>
       <r>    8.1156    0.0000 </r>
       <r>    8.8703    0.0000 </r>
       <r>    8.8703    0.0000 </r>
       <r>    8.8703    0.0000 </r>
       <r>    8.8703    0.0000 </r>
       <r>    9.5625    0.0000 </r>
       <r>    9.5625    0.0000 </r>
       <r>   10.0703    0.0000 </r>
       <r>   10.0703    0.0000 </r>
       <r>   10.0703    0.0000 </r>
       <r>   10.0703    0.0000 </r>
       <r>   10.8487    0.0000 </r>
       <r>   10.8499    0.0000 </r>
      </set>
      <set comment="kpoint 10">
       <r>   -3.3566    1.0000 </r>
       <r>   -1.7622    1.0000 </r>
       <r>   -1.7599    1.0000 </r>
       <r>   -1.2329    1.0000 </r>
       <r>   -1.2329    1.0000 </r>
       <r>   -0.7079    1.0000 </r>
       <r>   -0.7056    1.0000 </r>
       <r>   -0.1819    1.0000 </r>
       <r>    0.3393    1.0000 </r>
       <r>    0.3402    1.0000 </r>
       <r>    0.3415    1.0000 </r>
       <r>    0.3424    1.0000 </r>
       <r>    0.8612    1.0000 </r>
       <r>    0.8623    1.0000 </r>
       <r>    1.3796    1.0000 </r>
       <r>    1.3805    1.0000 </r>
       <r>    1.3818    1.0000 </r>
       <r>    1.3828    1.0000 </r>
       <r>    1.8984    1.0000 </r>
       <r>    1.8994    1.0000 </r>
       <r>    1.8997    1.0000 </r>
       <r>    2.9245    1.0000 </r>
       <r>    2.9245    1.0000 </r>
       <r>    2.9358    1.0000 </r>
       <r>    2.9358    1.0000 </r>
       <r>    3.8633    1.0000 </r>
       <r>    3.8642    1.0000 </r>
       <r>    3.9547    1.0000 </r>
       <r>    3.9547    1.0000 </r>
       <r>    4.4734    1.0000 </r>
       <r>    5.3725    1.0000 </r>
       <r>    5.3748    1.0000 </r>
       <r>    5.5923    1.0000 </r>
       <r>    5.8450    1.0000 </r>
       <r>    5.8450    1.0000 </r>
       <r>    5.9061    1.0000 </r>
       <r>    5.9061    1.0000 </r>
       <r>    5.9558    1.0000 </r>
       <r>    5.9583    1.0000 </r>
       <r>    6.1964    1.0000 </r>
       <r>    6.1973    1.0000 </r>
       <r>    6.3708    1.0000 </r>
       <r>    6.3722    1.0000 </r>
       <r>    6.9465    1.0000 </r>
       <r>    6.9490    1.0000 </r>
       <r>    7.1513    0.1546 </r>
       <r>    7.1531    0.1428 </r>
       <r>    7.3762    0.0000 </r>
       <r>    7.3771    0.0000 </r>
       <r>    7.3785    0.0000 </r>
       <r>    7.3794    0.0000 </r>
       <r>    7.4425    0.0000 </r>
       <r>    7.6906    0.0000 </r>
       <r>    7.6924    0.0000 </r>
       <r>    8.1126    0.0000 </r>
       <r>    8.1126    0.0000 </r>
       <r>    8.2201    0.0000 </r>
       <r>    8.2213    0.0000 </r>
       <r>    8.3691    0.0000 </r>
       <r>    8.3691    0.0000 </r>
       <r>    8.3731    0.0000 </r>
       <r>    8.3741    0.0000 </r>
       <r>    8.3743    0.0000 </r>
       <r>    8.3753    0.0000 </r>
       <r>    8.4329    0.0000 </r>
       <r>    8.4348    0.0000 </r>
       <r>    8.6832    0.0000 </r>
       <r>    8.7511    0.0000 </r>
       <r>    8.7531    0.0000 </r>
       <r>    9.4249    0.0000 </r>
       <r>    9.6778    0.0000 </r>
       <r>    9.6796    0.0000 </r>
      </set>
      <set comment="kpoint 11">
       <r>   -3.3566    1.0000 </r>
       <r>   -1.7611    1.0000 </r>
       <r>   -1.7610    1.0000 </r>
       <r>   -1.2345    1.0000 </r>
       <r>   -1.2313    1.0000 </r>
       <r>   -0.7067    1.0000 </r>
       <r>   -0.7067    1.0000 </r>
       <r>   -0.1820    1.0000 </r>
       <r>    0.3382    1.0000 </r>
       <r>    0.3402    1.0000 </r>
       <r>    0.3415    1.0000 </r>
       <r>    0.3435    1.0000 </r>
       <r>    0.8618    1.0000 </r>
       <r>    0.8618    1.0000 </r>
       <r>    1.3785    1.0000 </r>
       <r>    1.3805    1.0000 </r>
       <r>    1.3818    1.0000 </r>
       <r>    1.3838    1.0000 </r>
       <r>    1.8978    1.0000 </r>
       <r>    1.8987    1.0000 </r>
       <r>    1.9011    1.0000 </r>
       <r>    2.9243    1.0000 </r>
       <r>    2.9243    1.0000 </r>
       <r>    2.9360    1.0000 </r>
       <r>    2.9360    1.0000 </r>
       <r>    3.8637    1.0000 </r>
       <r>    3.8637    1.0000 </r>
       <r>    3.9530    1.0000 </r>
       <r>    3.9563    1.0000 </r>
       <r>    4.4734    1.0000 </r>
       <r>    5.3736    1.0000 </r>
       <r>    5.3737    1.0000 </r>
       <r>    5.5923    1.0000 </r>
       <r>    5.8450    1.0000 </r>
       <r>    5.8450    1.0000 </r>
       <r>    5.9061    1.0000 </r>
       <r>    5.9062    1.0000 </r>
       <r>    5.9571    1.0000 </r>
       <r>    5.9571    1.0000 </r>
       <r>    6.1969    1.0000 </r>
       <r>    6.1969    1.0000 </r>
       <r>    6.3715    1.0000 </r>
       <r>    6.3715    1.0000 </r>
       <r>    6.9478    1.0000 </r>
       <r>    6.9478    1.0000 </r>
       <r>    7.1522    0.1486 </r>
       <r>    7.1522    0.1486 </r>
       <r>    7.3750    0.0000 </r>
       <r>    7.3770    0.0000 </r>
       <r>    7.3786    0.0000 </r>
       <r>    7.3805    0.0000 </r>
       <r>    7.4426    0.0000 </r>
       <r>    7.6915    0.0000 </r>
       <r>    7.6915    0.0000 </r>
       <r>    8.1126    0.0000 </r>
       <r>    8.1126    0.0000 </r>
       <r>    8.2207    0.0000 </r>
       <r>    8.2207    0.0000 </r>
       <r>    8.3692    0.0000 </r>
       <r>    8.3692    0.0000 </r>
       <r>    8.3720    0.0000 </r>
       <r>    8.3727    0.0000 </r>
       <r>    8.3756    0.0000 </r>
       <r>    8.3762    0.0000 </r>
       <r>    8.4339    0.0000 </r>
       <r>    8.4339    0.0000 </r>
       <r>    8.6832    0.0000 </r>
       <r>    8.7521    0.0000 </r>
       <r>    8.7521    0.0000 </r>
       <r>    9.4249    0.0000 </r>
       <r>    9.6778    0.0000 </r>
       <r>    9.6789    0.0000 </r>
      </set>
      <set comment="kpoint 12">
       <r>   -3.2563    1.0000 </r>
       <r>   -2.1915    1.0000 </r>
       <r>   -1.6619    1.0000 </r>
       <r>   -1.1341    1.0000 </r>
       <r>   -1.1341    1.0000 </r>
       <r>   -0.6088    1.0000 </r>
       <r>   -0.6076    1.0000 </r>
       <r>   -0.0860    1.0000 </r>
       <r>   -0.0838    1.0000 </r>
       <r>   -0.0824    1.0000 </r>
       <r>    0.4379    1.0000 </r>
       <r>    0.4387    1.0000 </r>
       <r>    0.4393    1.0000 </r>
       <r>    1.4762    1.0000 </r>
       <r>    1.4781    1.0000 </r>
       <r>    1.4783    1.0000 </r>
       <r>    1.4790    1.0000 </r>
       <r>    1.4804    1.0000 </r>
       <r>    1.9952    1.0000 </r>
       <r>    1.9952    1.0000 </r>
       <r>    2.5094    1.0000 </r>
       <r>    2.5120    1.0000 </r>
       <r>    2.5133    1.0000 </r>
       <r>    2.9960    1.0000 </r>
       <r>    3.5386    1.0000 </r>
       <r>    3.5386    1.0000 </r>
       <r>    3.9584    1.0000 </r>
       <r>    4.5232    1.0000 </r>
       <r>    4.5594    1.0000 </r>
       <r>    4.5595    1.0000 </r>
       <r>    4.5661    1.0000 </r>
       <r>    4.9657    1.0000 </r>
       <r>    5.0288    1.0000 </r>
       <r>    5.0288    1.0000 </r>
       <r>    5.5329    1.0000 </r>
       <r>    5.5549    1.0000 </r>
       <r>    5.6907    1.0000 </r>
       <r>    5.9713    1.0000 </r>
       <r>    5.9713    1.0000 </r>
       <r>    6.0498    1.0000 </r>
       <r>    6.2932    1.0000 </r>
       <r>    6.5442    1.0000 </r>
       <r>    6.5442    1.0000 </r>
       <r>    6.7111    1.0000 </r>
       <r>    6.9718    1.0000 </r>
       <r>    6.9720    1.0000 </r>
       <r>    6.9923    0.9997 </r>
       <r>    7.0395    0.9841 </r>
       <r>    7.0411    0.9821 </r>
       <r>    7.2403    0.0002 </r>
       <r>    7.2516    0.0001 </r>
       <r>    7.3079    0.0000 </r>
       <r>    7.5365    0.0000 </r>
       <r>    7.5466    0.0000 </r>
       <r>    7.5467    0.0000 </r>
       <r>    8.0313    0.0000 </r>
       <r>    8.2366    0.0000 </r>
       <r>    8.2735    0.0000 </r>
       <r>    8.3200    0.0000 </r>
       <r>    8.3200    0.0000 </r>
       <r>    8.7836    0.0000 </r>
       <r>    8.7935    0.0000 </r>
       <r>    8.9637    0.0000 </r>
       <r>    8.9637    0.0000 </r>
       <r>    9.0227    0.0000 </r>
       <r>    9.2720    0.0000 </r>
       <r>    9.2721    0.0000 </r>
       <r>    9.2733    0.0000 </r>
       <r>    9.3322    0.0000 </r>
       <r>    9.3337    0.0000 </r>
       <r>    9.3353    0.0000 </r>
       <r>    9.7560    0.0000 </r>
      </set>
      <set comment="kpoint 13">
       <r>   -3.2563    1.0000 </r>
       <r>   -2.1915    1.0000 </r>
       <r>   -1.6619    1.0000 </r>
       <r>   -1.1357    1.0000 </r>
       <r>   -1.1325    1.0000 </r>
       <r>   -0.6083    1.0000 </r>
       <r>   -0.6081    1.0000 </r>
       <r>   -0.0858    1.0000 </r>
       <r>   -0.0844    1.0000 </r>
       <r>   -0.0821    1.0000 </r>
       <r>    0.4369    1.0000 </r>
       <r>    0.4385    1.0000 </r>
       <r>    0.4404    1.0000 </r>
       <r>    1.4762    1.0000 </r>
       <r>    1.4773    1.0000 </r>
       <r>    1.4780    1.0000 </r>
       <r>    1.4798    1.0000 </r>
       <r>    1.4808    1.0000 </r>
       <r>    1.9935    1.0000 </r>
       <r>    1.9968    1.0000 </r>
       <r>    2.5099    1.0000 </r>
       <r>    2.5110    1.0000 </r>
       <r>    2.5138    1.0000 </r>
       <r>    2.9960    1.0000 </r>
       <r>    3.5369    1.0000 </r>
       <r>    3.5402    1.0000 </r>
       <r>    3.9584    1.0000 </r>
       <r>    4.5231    1.0000 </r>
       <r>    4.5578    1.0000 </r>
       <r>    4.5610    1.0000 </r>
       <r>    4.5662    1.0000 </r>
       <r>    4.9657    1.0000 </r>
       <r>    5.0271    1.0000 </r>
       <r>    5.0305    1.0000 </r>
       <r>    5.5328    1.0000 </r>
       <r>    5.5550    1.0000 </r>
       <r>    5.6907    1.0000 </r>
       <r>    5.9695    1.0000 </r>
       <r>    5.9730    1.0000 </r>
       <r>    6.0499    1.0000 </r>
       <r>    6.2932    1.0000 </r>
       <r>    6.5424    1.0000 </r>
       <r>    6.5459    1.0000 </r>
       <r>    6.7111    1.0000 </r>
       <r>    6.9702    1.0000 </r>
       <r>    6.9737    1.0000 </r>
       <r>    6.9921    0.9998 </r>
       <r>    7.0401    0.9834 </r>
       <r>    7.0406    0.9828 </r>
       <r>    7.2403    0.0002 </r>
       <r>    7.2516    0.0001 </r>
       <r>    7.3079    0.0000 </r>
       <r>    7.5366    0.0000 </r>
       <r>    7.5449    0.0000 </r>
       <r>    7.5484    0.0000 </r>
       <r>    8.0313    0.0000 </r>
       <r>    8.2366    0.0000 </r>
       <r>    8.2734    0.0000 </r>
       <r>    8.3186    0.0000 </r>
       <r>    8.3215    0.0000 </r>
       <r>    8.7837    0.0000 </r>
       <r>    8.7934    0.0000 </r>
       <r>    8.9619    0.0000 </r>
       <r>    8.9655    0.0000 </r>
       <r>    9.0227    0.0000 </r>
       <r>    9.2706    0.0000 </r>
       <r>    9.2730    0.0000 </r>
       <r>    9.2739    0.0000 </r>
       <r>    9.3321    0.0000 </r>
       <r>    9.3337    0.0000 </r>
       <r>    9.3353    0.0000 </r>
       <r>    9.7560    0.0000 </r>
      </set>
      <set comment="kpoint 14">
       <r>   -3.2563    1.0000 </r>
       <r>   -2.1915    1.0000 </r>
       <r>   -1.6619    1.0000 </r>
       <r>   -1.1341    1.0000 </r>
       <r>   -1.1341    1.0000 </r>
       <r>   -0.6094    1.0000 </r>
       <r>   -0.6069    1.0000 </r>
       <r>   -0.0845    1.0000 </r>
       <r>   -0.0838    1.0000 </r>
       <r>   -0.0838    1.0000 </r>
       <r>    0.4372    1.0000 </r>
       <r>    0.4387    1.0000 </r>
       <r>    0.4400    1.0000 </r>
       <r>    1.4761    1.0000 </r>
       <r>    1.4777    1.0000 </r>
       <r>    1.4782    1.0000 </r>
       <r>    1.4795    1.0000 </r>
       <r>    1.4806    1.0000 </r>
       <r>    1.9952    1.0000 </r>
       <r>    1.9952    1.0000 </r>
       <r>    2.5107    1.0000 </r>
       <r>    2.5120    1.0000 </r>
       <r>    2.5120    1.0000 </r>
       <r>    2.9960    1.0000 </r>
       <r>    3.5386    1.0000 </r>
       <r>    3.5386    1.0000 </r>
       <r>    3.9584    1.0000 </r>
       <r>    4.5231    1.0000 </r>
       <r>    4.5594    1.0000 </r>
       <r>    4.5595    1.0000 </r>
       <r>    4.5661    1.0000 </r>
       <r>    4.9657    1.0000 </r>
       <r>    5.0288    1.0000 </r>
       <r>    5.0288    1.0000 </r>
       <r>    5.5329    1.0000 </r>
       <r>    5.5549    1.0000 </r>
       <r>    5.6907    1.0000 </r>
       <r>    5.9713    1.0000 </r>
       <r>    5.9713    1.0000 </r>
       <r>    6.0498    1.0000 </r>
       <r>    6.2932    1.0000 </r>
       <r>    6.5442    1.0000 </r>
       <r>    6.5442    1.0000 </r>
       <r>    6.7111    1.0000 </r>
       <r>    6.9719    1.0000 </r>
       <r>    6.9720    1.0000 </r>
       <r>    6.9921    0.9998 </r>
       <r>    7.0387    0.9849 </r>
       <r>    7.0419    0.9811 </r>
       <r>    7.2403    0.0002 </r>
       <r>    7.2516    0.0001 </r>
       <r>    7.3079    0.0000 </r>
       <r>    7.5366    0.0000 </r>
       <r>    7.5466    0.0000 </r>
       <r>    7.5466    0.0000 </r>
       <r>    8.0313    0.0000 </r>
       <r>    8.2365    0.0000 </r>
       <r>    8.2735    0.0000 </r>
       <r>    8.3200    0.0000 </r>
       <r>    8.3200    0.0000 </r>
       <r>    8.7837    0.0000 </r>
       <r>    8.7935    0.0000 </r>
       <r>    8.9637    0.0000 </r>
       <r>    8.9637    0.0000 </r>
       <r>    9.0227    0.0000 </r>
       <r>    9.2720    0.0000 </r>
       <r>    9.2721    0.0000 </r>
       <r>    9.2733    0.0000 </r>
       <r>    9.3337    0.0000 </r>
       <r>    9.3337    0.0000 </r>
       <r>    9.3338    0.0000 </r>
       <r>    9.7560    0.0000 </r>
      </set>
      <set comment="kpoint 15">
       <r>   -3.0895    1.0000 </r>
       <r>   -2.5567    1.0000 </r>
       <r>   -1.4968    1.0000 </r>
       <r>   -0.9709    1.0000 </r>
       <r>   -0.9695    1.0000 </r>
       <r>   -0.9682    1.0000 </r>
       <r>   -0.4455    1.0000 </r>
       <r>   -0.4441    1.0000 </r>
       <r>   -0.4429    1.0000 </r>
       <r>    0.0794    1.0000 </r>
       <r>    0.5990    1.0000 </r>
       <r>    0.6016    1.0000 </r>
       <r>    0.6023    1.0000 </r>
       <r>    1.1220    1.0000 </r>
       <r>    1.1220    1.0000 </r>
       <r>    1.6403    1.0000 </r>
       <r>    1.6403    1.0000 </r>
       <r>    2.1452    1.0000 </r>
       <r>    2.1549    1.0000 </r>
       <r>    2.1574    1.0000 </r>
       <r>    2.1577    1.0000 </r>
       <r>    2.6701    1.0000 </r>
       <r>    2.6702    1.0000 </r>
       <r>    3.1834    1.0000 </r>
       <r>    3.6840    1.0000 </r>
       <r>    4.1160    1.0000 </r>
       <r>    4.1935    1.0000 </r>
       <r>    4.1935    1.0000 </r>
       <r>    4.2075    1.0000 </r>
       <r>    4.2075    1.0000 </r>
       <r>    4.6199    1.0000 </r>
       <r>    4.7013    1.0000 </r>
       <r>    4.7204    1.0000 </r>
       <r>    5.2147    1.0000 </r>
       <r>    5.2245    1.0000 </r>
       <r>    5.2246    1.0000 </r>
       <r>    5.7170    1.0000 </r>
       <r>    5.7170    1.0000 </r>
       <r>    5.8542    1.0000 </r>
       <r>    6.1275    1.0000 </r>
       <r>    6.1275    1.0000 </r>
       <r>    6.2045    1.0000 </r>
       <r>    6.3725    1.0000 </r>
       <r>    6.4534    1.0000 </r>
       <r>    6.6281    1.0000 </r>
       <r>    6.6281    1.0000 </r>
       <r>    6.6995    1.0000 </r>
       <r>    6.7248    1.0000 </r>
       <r>    6.7248    1.0000 </r>
       <r>    6.9628    1.0000 </r>
       <r>    7.1954    0.0118 </r>
       <r>    7.4128    0.0000 </r>
       <r>    7.6299    0.0000 </r>
       <r>    7.6907    0.0000 </r>
       <r>    7.9244    0.0000 </r>
       <r>    8.1877    0.0000 </r>
       <r>    8.3833    0.0000 </r>
       <r>    8.4181    0.0000 </r>
       <r>    8.4852    0.0000 </r>
       <r>    8.4852    0.0000 </r>
       <r>    8.9283    0.0000 </r>
       <r>    8.9901    0.0000 </r>
       <r>    8.9901    0.0000 </r>
       <r>    9.1097    0.0000 </r>
       <r>    9.4199    0.0000 </r>
       <r>    9.6130    0.0000 </r>
       <r>    9.6130    0.0000 </r>
       <r>    9.6733    0.0000 </r>
       <r>    9.6774    0.0000 </r>
       <r>    9.8956    0.0000 </r>
       <r>    9.9692    0.0000 </r>
       <r>   10.3826    0.0000 </r>
      </set>
      <set comment="kpoint 16">
       <r>   -3.0895    1.0000 </r>
       <r>   -2.5567    1.0000 </r>
       <r>   -1.4968    1.0000 </r>
       <r>   -0.9716    1.0000 </r>
       <r>   -0.9695    1.0000 </r>
       <r>   -0.9675    1.0000 </r>
       <r>   -0.4462    1.0000 </r>
       <r>   -0.4442    1.0000 </r>
       <r>   -0.4420    1.0000 </r>
       <r>    0.0794    1.0000 </r>
       <r>    0.5987    1.0000 </r>
       <r>    0.6007    1.0000 </r>
       <r>    0.6035    1.0000 </r>
       <r>    1.1203    1.0000 </r>
       <r>    1.1236    1.0000 </r>
       <r>    1.6387    1.0000 </r>
       <r>    1.6419    1.0000 </r>
       <r>    2.1452    1.0000 </r>
       <r>    2.1550    1.0000 </r>
       <r>    2.1559    1.0000 </r>
       <r>    2.1591    1.0000 </r>
       <r>    2.6685    1.0000 </r>
       <r>    2.6718    1.0000 </r>
       <r>    3.1834    1.0000 </r>
       <r>    3.6840    1.0000 </r>
       <r>    4.1160    1.0000 </r>
       <r>    4.1919    1.0000 </r>
       <r>    4.1952    1.0000 </r>
       <r>    4.2059    1.0000 </r>
       <r>    4.2092    1.0000 </r>
       <r>    4.6199    1.0000 </r>
       <r>    4.7013    1.0000 </r>
       <r>    4.7205    1.0000 </r>
       <r>    5.2148    1.0000 </r>
       <r>    5.2228    1.0000 </r>
       <r>    5.2261    1.0000 </r>
       <r>    5.7153    1.0000 </r>
       <r>    5.7187    1.0000 </r>
       <r>    5.8542    1.0000 </r>
       <r>    6.1258    1.0000 </r>
       <r>    6.1293    1.0000 </r>
       <r>    6.2045    1.0000 </r>
       <r>    6.3725    1.0000 </r>
       <r>    6.4534    1.0000 </r>
       <r>    6.6264    1.0000 </r>
       <r>    6.6299    1.0000 </r>
[...]
       <r>    2.3451    1.0000 </r>
       <r>    2.3451    1.0000 </r>
       <r>    2.3451    1.0000 </r>
       <r>    2.3451    1.0000 </r>
       <r>    2.3452    1.0000 </r>
       <r>    2.3452    1.0000 </r>
       <r>    2.3453    1.0000 </r>
       <r>    2.3453    1.0000 </r>
       <r>    2.3453    1.0000 </r>
       <r>    2.3453    1.0000 </r>
       <r>    2.3457    1.0000 </r>
       <r>    2.3457    1.0000 </r>
       <r>    2.3459    1.0000 </r>
       <r>    2.3490    1.0000 </r>
       <r>    2.3490    1.0000 </r>
       <r>    2.3553    1.0000 </r>
       <r>    6.4060    1.0000 </r>
       <r>    6.4060    1.0000 </r>
       <r>    6.4077    1.0000 </r>
       <r>    6.4097    1.0000 </r>
       <r>    6.4111    1.0000 </r>
       <r>    6.4114    1.0000 </r>
       <r>    6.4114    1.0000 </r>
       <r>    6.4114    1.0000 </r>
       <r>    6.4117    1.0000 </r>
       <r>    6.4117    1.0000 </r>
       <r>    6.4117    1.0000 </r>
       <r>    6.4117    1.0000 </r>
       <r>    6.4118    1.0000 </r>
       <r>    6.4118    1.0000 </r>
       <r>    6.4118    1.0000 </r>
       <r>    6.4118    1.0000 </r>
       <r>    6.4120    1.0000 </r>
       <r>    6.4120    1.0000 </r>
       <r>    6.4120    1.0000 </r>
       <r>    6.4124    1.0000 </r>
       <r>    6.4137    1.0000 </r>
       <r>    6.4158    1.0000 </r>
       <r>    6.4175    1.0000 </r>
       <r>    6.4175    1.0000 </r>
       <r>   10.3900    0.0000 </r>
       <r>   10.3900    0.0000 </r>
       <r>   10.3902    0.0000 </r>
       <r>   10.3907    0.0000 </r>
       <r>   10.3920    0.0000 </r>
       <r>   10.3927    0.0000 </r>
       <r>   10.3928    0.0000 </r>
       <r>   10.3929    0.0000 </r>
       <r>   10.5547    0.0000 </r>
       <r>   10.5557    0.0000 </r>
       <r>   10.5559    0.0000 </r>
       <r>   10.5563    0.0000 </r>
       <r>   10.5570    0.0000 </r>
       <r>   10.5572    0.0000 </r>
       <r>   10.5574    0.0000 </r>
       <r>   10.5583    0.0000 </r>
      </set>
     </set>
    </set>
   </array>
  </eigenvalues>
  <separator name="orbital magnetization" >
   <v name="MAGDIPOLOUT">      0.00000000      0.00000000      0.00000000</v>
  </separator>
  <dos>
   <i name="efermi">      7.11537406 </i>
   <total>
    <array>
     <dimension dim="1">gridpoints</dimension>
     <dimension dim="2">spin</dimension>
     <field>energy</field>
     <field>total</field>
     <field>integrated</field>
     <set>
      <set comment="spin 1">
       <r>    -4.1371     0.0000     0.0000 </r>
       <r>    -4.0847     0.0000     0.0000 </r>
       <r>    -4.0324     0.0000     0.0000 </r>
       <r>    -3.9801     0.0000     0.0000 </r>
       <r>    -3.9277     0.0000     0.0000 </r>
       <r>    -3.8754     0.0000     0.0000 </r>
       <r>    -3.8231     0.0000     0.0000 </r>
       <r>    -3.7707     0.0000     0.0000 </r>
       <r>    -3.7184     0.0000     0.0000 </r>
       <r>    -3.6660     0.0000     0.0000 </r>
       <r>    -3.6137     0.0000     0.0000 </r>
       <r>    -3.5614     0.0000     0.0000 </r>
       <r>    -3.5090     0.0007     0.0000 </r>
       <r>    -3.4567     0.0275     0.0015 </r>
       <r>    -3.4044     0.2633     0.0153 </r>
       <r>    -3.3520     0.8069     0.0575 </r>
       <r>    -3.2997     1.1132     0.1158 </r>
       <r>    -3.2473     1.7090     0.2052 </r>
       <r>    -3.1950     1.8355     0.3013 </r>
       <r>    -3.1427     1.6245     0.3863 </r>
       <r>    -3.0903     2.5692     0.5208 </r>
       <r>    -3.0380     2.5080     0.6520 </r>
       <r>    -2.9857     2.4674     0.7811 </r>
       <r>    -2.9333     2.8775     0.9318 </r>
       <r>    -2.8810     2.1444     1.0440 </r>
       <r>    -2.8286     3.4682     1.2255 </r>
       <r>    -2.7763     3.6593     1.4170 </r>
       <r>    -2.7240     3.6278     1.6069 </r>
       <r>    -2.6716     3.0629     1.7672 </r>
       <r>    -2.6193     2.2405     1.8845 </r>
       <r>    -2.5670     4.0984     2.0990 </r>
       <r>    -2.5146     4.7689     2.3486 </r>
       <r>    -2.4623     4.0766     2.5619 </r>
       <r>    -2.4099     4.5613     2.8006 </r>
       <r>    -2.3576     2.7045     2.9422 </r>
       <r>    -2.3053     3.8784     3.1452 </r>
       <r>    -2.2529     5.1018     3.4122 </r>
       <r>    -2.2006     4.4219     3.6436 </r>
       <r>    -2.1483     4.4122     3.8746 </r>
       <r>    -2.0959     3.9273     4.0801 </r>
       <r>    -2.0436     5.9275     4.3903 </r>
       <r>    -1.9912     5.5174     4.6791 </r>
       <r>    -1.9389     4.5875     4.9192 </r>
       <r>    -1.8866     5.0904     5.1856 </r>
       <r>    -1.8342     2.9045     5.3376 </r>
       <r>    -1.7819     4.3822     5.5670 </r>
       <r>    -1.7296     6.6944     5.9174 </r>
       <r>    -1.6772     6.0169     6.2323 </r>
       <r>    -1.6249     7.0677     6.6022 </r>
       <r>    -1.5725     5.3612     6.8828 </r>
       <r>    -1.5202     4.6785     7.1276 </r>
       <r>    -1.4679     4.9162     7.3849 </r>
       <r>    -1.4155     5.0340     7.6484 </r>
       <r>    -1.3632     6.5179     7.9895 </r>
       <r>    -1.3109     4.8076     8.2411 </r>
       <r>    -1.2585     5.8438     8.5470 </r>
       <r>    -1.2062     7.9012     8.9605 </r>
       <r>    -1.1538     6.6804     9.3102 </r>
       <r>    -1.1015     6.8641     9.6694 </r>
       <r>    -1.0492     4.1761     9.8880 </r>
       <r>    -0.9968     5.4259    10.1720 </r>
       <r>    -0.9445     8.4781    10.6157 </r>
       <r>    -0.8922     7.1819    10.9916 </r>
       <r>    -0.8398     6.5586    11.3348 </r>
       <r>    -0.7875     4.1979    11.5545 </r>
       <r>    -0.7351     5.7230    11.8541 </r>
       <r>    -0.6828     7.6223    12.2530 </r>
       <r>    -0.6305     7.0830    12.6237 </r>
       <r>    -0.5781     7.5355    13.0181 </r>
       <r>    -0.5258     6.3671    13.3513 </r>
       <r>    -0.4735     8.4447    13.7933 </r>
       <r>    -0.4211    10.7746    14.3572 </r>
       <r>    -0.3688     5.8124    14.6614 </r>
       <r>    -0.3164     5.4365    14.9460 </r>
       <r>    -0.2641     4.8613    15.2004 </r>
       <r>    -0.2118     4.9310    15.4585 </r>
       <r>    -0.1594     8.4100    15.8986 </r>
       <r>    -0.1071     9.1720    16.3787 </r>
       <r>    -0.0547     9.8942    16.8965 </r>
       <r>    -0.0024     6.3901    17.2309 </r>
       <r>     0.0499     7.7406    17.6361 </r>
       <r>     0.1023     8.8574    18.0997 </r>
       <r>     0.1546     7.5125    18.4928 </r>
       <r>     0.2069     8.8127    18.9541 </r>
       <r>     0.2593     6.6760    19.3035 </r>
       <r>     0.3116     5.7483    19.6043 </r>
       <r>     0.3640     8.8088    20.0654 </r>
       <r>     0.4163     9.1060    20.5420 </r>
       <r>     0.4686     9.5215    21.0403 </r>
       <r>     0.5210     6.0022    21.3544 </r>
       <r>     0.5733     7.0362    21.7227 </r>
       <r>     0.6256     9.1934    22.2038 </r>
       <r>     0.6780     7.6216    22.6027 </r>
       <r>     0.7303    10.8850    23.1724 </r>
       <r>     0.7827     7.9113    23.5865 </r>
       <r>     0.8350     7.6249    23.9856 </r>
       <r>     0.8873    10.1522    24.5169 </r>
       <r>     0.9397     9.2182    24.9994 </r>
       <r>     0.9920     9.5852    25.5010 </r>
       <r>     1.0443     8.0921    25.9245 </r>
       <r>     1.0967     8.1083    26.3489 </r>
       <r>     1.1490     9.7694    26.8602 </r>
       <r>     1.2014     8.5045    27.3053 </r>
       <r>     1.2537     7.1099    27.6774 </r>
       <r>     1.3060     4.5659    27.9164 </r>
       <r>     1.3584     8.8750    28.3809 </r>
       <r>     1.4107    12.8676    29.0544 </r>
       <r>     1.4630    10.4671    29.6022 </r>
       <r>     1.5154    11.8677    30.2233 </r>
       <r>     1.5677     8.8293    30.6854 </r>
       <r>     1.6201    11.0845    31.2655 </r>
       <r>     1.6724    11.0959    31.8463 </r>
       <r>     1.7247     7.2273    32.2245 </r>
       <r>     1.7771     6.8658    32.5839 </r>
       <r>     1.8294     6.3490    32.9162 </r>
       <r>     1.8817    11.3083    33.5080 </r>
       <r>     1.9341    11.1318    34.0906 </r>
       <r>     1.9864     9.7415    34.6005 </r>
       <r>     2.0388    10.0565    35.1268 </r>
       <r>     2.0911     7.0516    35.4959 </r>
       <r>     2.1434     9.8853    36.0133 </r>
       <r>     2.1958    12.5791    36.6716 </r>
       <r>     2.2481    12.4200    37.3216 </r>
       <r>     2.3004    12.2384    37.9622 </r>
       <r>     2.3528     6.0740    38.2801 </r>
       <r>     2.4051     7.1362    38.6536 </r>
       <r>     2.4575    10.9174    39.2250 </r>
       <r>     2.5098    12.2340    39.8653 </r>
       <r>     2.5621    11.4647    40.4653 </r>
       <r>     2.6145     9.3562    40.9550 </r>
       <r>     2.6668    14.3576    41.7064 </r>
       <r>     2.7191    10.8492    42.2742 </r>
       <r>     2.7715     9.4258    42.7676 </r>
       <r>     2.8238     7.4929    43.1597 </r>
       <r>     2.8762     4.5452    43.3976 </r>
       <r>     2.9285    12.3530    44.0441 </r>
       <r>     2.9808    14.6833    44.8126 </r>
       <r>     3.0332    11.8636    45.4335 </r>
       <r>     3.0855     9.7404    45.9433 </r>
       <r>     3.1378     9.7499    46.4536 </r>
       <r>     3.1902    11.3880    47.0496 </r>
       <r>     3.2425    10.9411    47.6223 </r>
       <r>     3.2949    12.8238    48.2934 </r>
       <r>     3.3472    12.2652    48.9354 </r>
       <r>     3.3995    12.1209    49.5697 </r>
       <r>     3.4519    14.0459    50.3049 </r>
       <r>     3.5042    11.4822    50.9058 </r>
       <r>     3.5565     9.3989    51.3977 </r>
       <r>     3.6089     6.7814    51.7526 </r>
       <r>     3.6612     8.6409    52.2049 </r>
       <r>     3.7136    12.0685    52.8365 </r>
       <r>     3.7659    12.3811    53.4845 </r>
       <r>     3.8182    13.4543    54.1887 </r>
       <r>     3.8706    10.1188    54.7183 </r>
       <r>     3.9229    11.2739    55.3083 </r>
       <r>     3.9752    13.4725    56.0134 </r>
       <r>     4.0276    13.3758    56.7135 </r>
       <r>     4.0799    13.7441    57.4328 </r>
       <r>     4.1323    12.3942    58.0815 </r>
       <r>     4.1846    13.3400    58.7797 </r>
       <r>     4.2369    13.5765    59.4903 </r>
       <r>     4.2893    11.9052    60.1134 </r>
       <r>     4.3416     9.2643    60.5982 </r>
       <r>     4.3939     8.7792    61.0577 </r>
       <r>     4.4463    11.2991    61.6491 </r>
       <r>     4.4986    13.0820    62.3338 </r>
       <r>     4.5510    14.7579    63.1061 </r>
       <r>     4.6033    15.1327    63.8982 </r>
       <r>     4.6556    14.7875    64.6721 </r>
       <r>     4.7080    15.4663    65.4816 </r>
       <r>     4.7603    13.7109    66.1992 </r>
       <r>     4.8126    10.5729    66.7525 </r>
       <r>     4.8650     9.1494    67.2314 </r>
       <r>     4.9173    10.0383    67.7568 </r>
       <r>     4.9697    14.0281    68.4910 </r>
       <r>     5.0220    14.8361    69.2674 </r>
       <r>     5.0743    12.6389    69.9289 </r>
       <r>     5.1267     9.0190    70.4010 </r>
       <r>     5.1790     8.0413    70.8218 </r>
       <r>     5.2313    12.8634    71.4951 </r>
       <r>     5.2837    14.7684    72.2680 </r>
       <r>     5.3360    15.6877    73.0891 </r>
       <r>     5.3884    11.6664    73.6997 </r>
       <r>     5.4407    10.8632    74.2682 </r>
       <r>     5.4930    14.3026    75.0168 </r>
       <r>     5.5454    11.5114    75.6192 </r>
       <r>     5.5977     8.8251    76.0811 </r>
       <r>     5.6500    11.1148    76.6629 </r>
       <r>     5.7024    14.7920    77.4370 </r>
       <r>     5.7547    10.3889    77.9808 </r>
       <r>     5.8071    11.6360    78.5898 </r>
       <r>     5.8594    14.1471    79.3302 </r>
       <r>     5.9117     9.8886    79.8477 </r>
       <r>     5.9641    11.8506    80.4680 </r>
       <r>     6.0164    13.2564    81.1618 </r>
       <r>     6.0688    13.1555    81.8503 </r>
       <r>     6.1211    15.0751    82.6393 </r>
       <r>     6.1734    13.8991    83.3667 </r>
       <r>     6.2258    11.3703    83.9618 </r>
       <r>     6.2781    10.9336    84.5341 </r>
       <r>     6.3304    13.4575    85.2384 </r>
       <r>     6.3828    14.7346    86.0096 </r>
       <r>     6.4351    15.1167    86.8008 </r>
       <r>     6.4875    15.8320    87.6294 </r>
       <r>     6.5398    13.2168    88.3211 </r>
       <r>     6.5921     8.8050    88.7819 </r>
       <r>     6.6445    10.5301    89.3331 </r>
       <r>     6.6968    17.0690    90.2264 </r>
       <r>     6.7491    16.4721    91.0885 </r>
       <r>     6.8015    11.2809    91.6789 </r>
       <r>     6.8538    10.9114    92.2500 </r>
       <r>     6.9062    11.2338    92.8380 </r>
       <r>     6.9585    13.9628    93.5688 </r>
       <r>     7.0108    17.3117    94.4748 </r>
       <r>     7.0632    14.8486    95.2519 </r>
       <r>     7.1155    14.3245    96.0017 </r>
       <r>     7.1678    11.7453    96.6164 </r>
       <r>     7.2202    12.7513    97.2837 </r>
       <r>     7.2725    14.5072    98.0430 </r>
       <r>     7.3249    12.2228    98.6827 </r>
       <r>     7.3772     9.9721    99.2046 </r>
       <r>     7.4295     9.9445    99.7251 </r>
       <r>     7.4819    16.6665   100.5974 </r>
       <r>     7.5342    20.7743   101.6847 </r>
       <r>     7.5865    16.3070   102.5382 </r>
       <r>     7.6389    15.2536   103.3365 </r>
       <r>     7.6912    13.7112   104.0541 </r>
       <r>     7.7436    15.9190   104.8873 </r>
       <r>     7.7959    16.2365   105.7370 </r>
       <r>     7.8482    14.0687   106.4734 </r>
       <r>     7.9006    15.0290   107.2599 </r>
       <r>     7.9529    12.7610   107.9278 </r>
       <r>     8.0052    11.7740   108.5440 </r>
       <r>     8.0576    11.6065   109.1515 </r>
       <r>     8.1099    11.3358   109.7448 </r>
       <r>     8.1623    12.0581   110.3759 </r>
       <r>     8.2146     9.5880   110.8777 </r>
       <r>     8.2669    14.4633   111.6347 </r>
       <r>     8.3193    18.5341   112.6047 </r>
       <r>     8.3716    18.9924   113.5987 </r>
       <r>     8.4239    18.4605   114.5649 </r>
       <r>     8.4763    18.4890   115.5326 </r>
       <r>     8.5286    18.2803   116.4893 </r>
       <r>     8.5810    10.5722   117.0426 </r>
       <r>     8.6333    12.2202   117.6822 </r>
       <r>     8.6856    15.3227   118.4842 </r>
       <r>     8.7380    13.4301   119.1871 </r>
       <r>     8.7903    15.4648   119.9965 </r>
       <r>     8.8426    14.6990   120.7658 </r>
       <r>     8.8950    14.8415   121.5425 </r>
       <r>     8.9473    14.8365   122.3190 </r>
       <r>     8.9997    16.6445   123.1902 </r>
       <r>     9.0520    15.4683   123.9998 </r>
       <r>     9.1043    13.3470   124.6983 </r>
       <r>     9.1567    17.2616   125.6017 </r>
       <r>     9.2090    14.2040   126.3451 </r>
       <r>     9.2613    17.6846   127.2707 </r>
       <r>     9.3137    14.9099   128.0511 </r>
       <r>     9.3660    12.1871   128.6889 </r>
       <r>     9.4184    14.7509   129.4609 </r>
       <r>     9.4707    17.3231   130.3676 </r>
       <r>     9.5230    17.9686   131.3080 </r>
       <r>     9.5754    12.4393   131.9591 </r>
       <r>     9.6277    12.4413   132.6102 </r>
       <r>     9.6800    13.9158   133.3385 </r>
       <r>     9.7324    13.6782   134.0544 </r>
       <r>     9.7847    12.9416   134.7317 </r>
       <r>     9.8371    15.6194   135.5492 </r>
       <r>     9.8894    19.9380   136.5927 </r>
       <r>     9.9417    18.2857   137.5498 </r>
       <r>     9.9941    14.7769   138.3231 </r>
       <r>    10.0464    12.6759   138.9866 </r>
       <r>    10.0987    12.8369   139.6584 </r>
       <r>    10.1511    14.3852   140.4113 </r>
       <r>    10.2034    11.1677   140.9958 </r>
       <r>    10.2558    11.0769   141.5755 </r>
       <r>    10.3081    10.3204   142.1157 </r>
       <r>    10.3604     9.8937   142.6335 </r>
       <r>    10.4128     7.5891   143.0307 </r>
       <r>    10.4651     5.6881   143.3284 </r>
       <r>    10.5174     2.9863   143.4847 </r>
       <r>    10.5698     2.3453   143.6074 </r>
       <r>    10.6221     3.5796   143.7948 </r>
       <r>    10.6745     2.3432   143.9174 </r>
       <r>    10.7268     0.9724   143.9683 </r>
       <r>    10.7791     0.1642   143.9769 </r>
       <r>    10.8315     0.1305   143.9837 </r>
       <r>    10.8838     0.2368   143.9961 </r>
       <r>    10.9361     0.0709   143.9998 </r>
       <r>    10.9885     0.0032   144.0000 </r>
       <r>    11.0408     0.0000   144.0000 </r>
       <r>    11.0932     0.0000   144.0000 </r>
       <r>    11.1455     0.0000   144.0000 </r>
       <r>    11.1978     0.0000   144.0000 </r>
       <r>    11.2502     0.0000   144.0000 </r>
       <r>    11.3025     0.0000   144.0000 </r>
       <r>    11.3548     0.0000   144.0000 </r>
       <r>    11.4072     0.0000   144.0000 </r>
       <r>    11.4595     0.0000   144.0000 </r>
       <r>    11.5119     0.0000   144.0000 </r>
       <r>    11.5642     0.0000   144.0000 </r>
      </set>
     </set>
    </array>
   </total>
  </dos>
 </calculation>
 <structure name="finalpos" >
  <crystal>
   <varray name="basis" >
    <v>       8.31913113       0.00000000       0.00000000 </v>
    <v>       0.00000000       8.31913113       0.00000000 </v>
    <v>       0.00000000       0.00000000       8.31913113 </v>
   </varray>
   <i name="volume">    575.74995067 </i>
   <varray name="rec_basis" >
    <v>       0.12020486       0.00000000       0.00000000 </v>
    <v>       0.00000000       0.12020486       0.00000000 </v>
    <v>       0.00000000       0.00000000       0.12020486 </v>
   </varray>
  </crystal>
  <varray name="positions" >
   <v>       0.00120205       0.00000000       0.00000000 </v>
   <v>       0.50000000       0.00000000       0.00000000 </v>
   <v>       0.00000000       0.50000000       0.00000000 </v>
   <v>       0.50000000       0.50000000       0.00000000 </v>
   <v>       0.00000000       0.00000000       0.50000000 </v>
   <v>       0.50000000       0.00000000       0.50000000 </v>
   <v>       0.00000000       0.50000000       0.50000000 </v>
   <v>       0.50000000       0.50000000       0.50000000 </v>
   <v>       0.00000000       0.25000000       0.25000000 </v>
   <v>       0.50000000       0.25000000       0.25000000 </v>
   <v>       0.00000000       0.75000000       0.25000000 </v>
   <v>       0.50000000       0.75000000       0.25000000 </v>
   <v>       0.00000000       0.25000000       0.75000000 </v>
   <v>       0.50000000       0.25000000       0.75000000 </v>
   <v>       0.00000000       0.75000000       0.75000000 </v>
   <v>       0.50000000       0.75000000       0.75000000 </v>
   <v>       0.25000000       0.00000000       0.25000000 </v>
   <v>       0.75000000       0.00000000       0.25000000 </v>
   <v>       0.25000000       0.50000000       0.25000000 </v>
   <v>       0.75000000       0.50000000       0.25000000 </v>
   <v>       0.25000000       0.00000000       0.75000000 </v>
   <v>       0.75000000       0.00000000       0.75000000 </v>
   <v>       0.25000000       0.50000000       0.75000000 </v>
   <v>       0.75000000       0.50000000       0.75000000 </v>
   <v>       0.25000000       0.25000000       0.00000000 </v>
   <v>       0.75000000       0.25000000       0.00000000 </v>
   <v>       0.25000000       0.75000000       0.00000000 </v>
   <v>       0.75000000       0.75000000       0.00000000 </v>
   <v>       0.25000000       0.25000000       0.50000000 </v>
   <v>       0.75000000       0.25000000       0.50000000 </v>
   <v>       0.25000000       0.75000000       0.50000000 </v>
   <v>       0.75000000       0.75000000       0.50000000 </v>
  </varray>
 </structure>
</modeling>
