<?xml version="1.0" encoding="ISO-8859-1"?>
<modeling>
 <generator>
  <i name="program" type="string">vasp </i>
  <i name="version" type="string">6.3.0  </i>
  <i name="subversion" type="string">20Jan22 (build Feb 10 2022 15:15:41) complex                          parallel </i>
  <i name="platform" type="string">LinuxIFC </i>
  <i name="date" type="string">2023 10 04 </i>
  <i name="time" type="string">22:03:41 </i>
 </generator>
 <incar>
  <i name="EDIFF">      0.00010000</i>
  <i name="ENCUT">    400.00000000</i>
  <i type="int" name="ISMEAR">     0</i>
  <i name="SIGMA">      0.05000000</i>
 </incar>
 <primitive_cell>
  <structure name="primitive_cell" >
   <crystal>
    <varray name="basis" >
     <v>       5.67105810       0.00000000       0.00000000 </v>
     <v>       0.00000000       5.67105810       0.00000000 </v>
     <v>       0.00000000       0.00000000       5.67105810 </v>
    </varray>
    <i name="volume">    182.38633194 </i>
    <varray name="rec_basis" >
     <v>       0.17633394       0.00000000       0.00000000 </v>
     <v>       0.00000000       0.17633394       0.00000000 </v>
     <v>       0.00000000       0.00000000       0.17633394 </v>
    </varray>
   </crystal>
   <varray name="positions" >
    <v>       0.00176334       0.00000000       0.00000000 </v>
    <v>       0.50000000       0.00000000       0.00000000 </v>
    <v>       0.00000000       0.50000000       0.00000000 </v>
    <v>       0.50000000       0.50000000       0.00000000 </v>
    <v>       0.00000000       0.00000000       0.50000000 </v>
    <v>       0.50000000       0.00000000       0.50000000 </v>
    <v>       0.00000000       0.50000000       0.50000000 </v>
    <v>       0.50000000       0.50000000       0.50000000 </v>
    <v>       0.25000000       0.25000000       0.25000000 </v>
    <v>       0.75000000       0.25000000       0.25000000 </v>
    <v>       0.25000000       0.75000000       0.25000000 </v>
    <v>       0.75000000       0.75000000       0.25000000 </v>
    <v>       0.25000000       0.25000000       0.75000000 </v>
    <v>       0.75000000       0.25000000       0.75000000 </v>
    <v>       0.25000000       0.75000000       0.75000000 </v>
    <v>       0.75000000       0.75000000       0.75000000 </v>
   </varray>
  </structure>
  <varray name="primitive_index" >
   <v type="int" >        1 </v>
   <v type="int" >        2 </v>
   <v type="int" >        3 </v>
   <v type="int" >        4 </v>
   <v type="int" >        5 </v>
   <v type="int" >        6 </v>
   <v type="int" >        7 </v>
   <v type="int" >        8 </v>
   <v type="int" >        9 </v>
   <v type="int" >       10 </v>
   <v type="int" >       11 </v>
   <v type="int" >       12 </v>
   <v type="int" >       13 </v>
   <v type="int" >       14 </v>
   <v type="int" >       15 </v>
   <v type="int" >       16 </v>
  </varray>
 </primitive_cell>
 <kpoints>
  <generation param="Gamma">
   <v type="int" name="divisions">       6        6        6 </v>
   <v name="usershift">      0.00000000       0.00000000       0.00000000 </v>
   <v name="genvec1">      0.16666667       0.00000000       0.00000000 </v>
   <v name="genvec2">      0.00000000       0.16666667       0.00000000 </v>
   <v name="genvec3">      0.00000000       0.00000000       0.16666667 </v>
   <v name="shift">      0.00000000       0.00000000       0.00000000 </v>
  </generation>
  <varray name="kpointlist" >
   <v>       0.00000000       0.00000000       0.00000000 </v>
   <v>       0.16666667       0.00000000       0.00000000 </v>
   <v>       0.00000000       0.16666667       0.00000000 </v>
   <v>       0.33333333       0.00000000       0.00000000 </v>
   <v>       0.00000000       0.33333333       0.00000000 </v>
   <v>       0.50000000       0.00000000       0.00000000 </v>
   <v>       0.00000000       0.50000000       0.00000000 </v>
   <v>       0.16666667       0.16666667       0.00000000 </v>
   <v>       0.00000000       0.16666667       0.16666667 </v>
   <v>       0.33333333       0.16666667       0.00000000 </v>
   <v>       0.00000000       0.33333333       0.16666667 </v>
   <v>       0.16666667       0.00000000       0.33333333 </v>
   <v>       0.50000000       0.16666667       0.00000000 </v>
   <v>       0.00000000       0.50000000       0.16666667 </v>
   <v>       0.16666667       0.00000000       0.50000000 </v>
   <v>       0.33333333       0.33333333       0.00000000 </v>
   <v>       0.00000000       0.33333333       0.33333333 </v>
   <v>       0.50000000       0.33333333       0.00000000 </v>
   <v>       0.00000000       0.50000000       0.33333333 </v>
   <v>       0.33333333       0.00000000       0.50000000 </v>
   <v>       0.50000000       0.50000000       0.00000000 </v>
   <v>       0.00000000       0.50000000       0.50000000 </v>
   <v>       0.16666667       0.16666667       0.16666667 </v>
   <v>       0.33333333       0.16666667       0.16666667 </v>
   <v>       0.16666667       0.33333333       0.16666667 </v>
   <v>       0.50000000       0.16666667       0.16666667 </v>
   <v>       0.16666667       0.50000000       0.16666667 </v>
   <v>       0.33333333       0.33333333       0.16666667 </v>
   <v>       0.16666667       0.33333333       0.33333333 </v>
   <v>       0.50000000       0.33333333       0.16666667 </v>
   <v>       0.16666667       0.50000000       0.33333333 </v>
   <v>       0.33333333       0.16666667       0.50000000 </v>
   <v>       0.50000000       0.50000000       0.16666667 </v>
   <v>       0.16666667       0.50000000       0.50000000 </v>
   <v>       0.33333333       0.33333333       0.33333333 </v>
   <v>       0.50000000       0.33333333       0.33333333 </v>
   <v>       0.33333333       0.50000000       0.33333333 </v>
   <v>       0.50000000       0.50000000       0.33333333 </v>
   <v>       0.33333333       0.50000000       0.50000000 </v>
   <v>       0.50000000       0.50000000       0.50000000 </v>
  </varray>
  <varray name="weights" >
   <v>       0.00462963 </v>
   <v>       0.00925926 </v>
   <v>       0.01851852 </v>
   <v>       0.00925926 </v>
   <v>       0.01851852 </v>
   <v>       0.00462963 </v>
   <v>       0.00925926 </v>
   <v>       0.03703704 </v>
   <v>       0.01851852 </v>
   <v>       0.03703704 </v>
   <v>       0.03703704 </v>
   <v>       0.03703704 </v>
   <v>       0.01851852 </v>
   <v>       0.01851852 </v>
   <v>       0.01851852 </v>
   <v>       0.03703704 </v>
   <v>       0.01851852 </v>
   <v>       0.01851852 </v>
   <v>       0.01851852 </v>
   <v>       0.01851852 </v>
   <v>       0.00925926 </v>
   <v>       0.00462963 </v>
   <v>       0.03703704 </v>
   <v>       0.03703704 </v>
   <v>       0.07407407 </v>
   <v>       0.01851852 </v>
   <v>       0.03703704 </v>
   <v>       0.07407407 </v>
   <v>       0.03703704 </v>
   <v>       0.03703704 </v>
   <v>       0.03703704 </v>
   <v>       0.03703704 </v>
   <v>       0.01851852 </v>
   <v>       0.00925926 </v>
   <v>       0.03703704 </v>
   <v>       0.01851852 </v>
   <v>       0.03703704 </v>
   <v>       0.01851852 </v>
   <v>       0.00925926 </v>
   <v>       0.00462963 </v>
  </varray>
 </kpoints>
 <parameters>
  <separator name="general" >
   <i type="string" name="SYSTEM">unknown system</i>
   <i type="logical" name="LCOMPAT"> F  </i>
  </separator>
  <separator name="electronic" >
   <i type="string" name="PREC">normal</i>
   <i name="ENMAX">    400.00000000</i>
   <i name="ENAUG">    402.10800000</i>
   <i name="EDIFF">      0.00010000</i>
   <i type="int" name="IALGO">    38</i>
   <i type="int" name="IWAVPR">    10</i>
   <i type="int" name="NBANDS">    96</i>
   <i type="int" name="NBANDSLOW">    -1</i>
   <i type="int" name="NBANDSHIGH">    -1</i>
   <i name="NELECT">     96.00000000</i>
   <i type="int" name="TURBO">     0</i>
   <i type="int" name="IRESTART">     0</i>
   <i type="int" name="NREBOOT">     0</i>
   <i type="int" name="NMIN">     0</i>
   <i name="EREF">      0.00000000</i>
   <separator name="electronic smearing" >
    <i type="int" name="ISMEAR">     0</i>
    <i name="SIGMA">      0.05000000</i>
    <i name="KSPACING">      0.50000000</i>
    <i type="logical" name="KGAMMA"> T  </i>
    <i type="logical" name="KBLOWUP"> T  </i>
   </separator>
   <separator name="electronic projectors" >
    <i type="logical" name="LREAL"> F  </i>
    <v name="ROPT">      0.00000000</v>
    <i type="int" name="LMAXPAW">  -100</i>
    <i type="int" name="LMAXMIX">     2</i>
    <i type="logical" name="NLSPLINE"> F  </i>
   </separator>
   <separator name="electronic startup" >
    <i type="int" name="ISTART">     0</i>
    <i type="int" name="ICHARG">     2</i>
    <i type="int" name="INIWAV">     1</i>
   </separator>
   <separator name="electronic spin" >
    <i type="int" name="ISPIN">     1</i>
    <i type="logical" name="LNONCOLLINEAR"> F  </i>
    <v name="MAGMOM">      1.00000000      1.00000000      1.00000000      1.00000000      1.00000000      1.00000000      1.00000000      1.00000000      1.00000000      1.00000000      1.00000000      1.00000000      1.00000000      1.00000000      1.00000000      1.00000000</v>
    <i name="NUPDOWN">     -1.00000000</i>
    <i type="logical" name="LSORBIT"> F  </i>
    <v name="SAXIS">      0.00000000      0.00000000      1.00000000</v>
    <i type="logical" name="LSPIRAL"> F  </i>
    <v name="QSPIRAL">      0.00000000      0.00000000      0.00000000</v>
    <i type="logical" name="LZEROZ"> F  </i>
   </separator>
   <separator name="electronic exchange-correlation" >
    <i type="logical" name="LASPH"> F  </i>
    <i type="logical" name="LMETAGGA"> F  </i>
   </separator>
   <separator name="electronic convergence" >
    <i type="int" name="NELM">    60</i>
    <i type="int" name="NELMDL">    -5</i>
    <i type="int" name="NELMIN">     2</i>
    <i name="ENINI">    400.00000000</i>
    <separator name="electronic convergence detail" >
     <i type="logical" name="LDIAG"> T  </i>
     <i type="logical" name="LSUBROT"> F  </i>
     <i name="WEIMIN">      0.00000000</i>
     <i name="EBREAK">      0.00000026</i>
     <i name="DEPER">      0.30000000</i>
     <i type="int" name="NRMM">     4</i>
     <i name="TIME">      0.40000000</i>
    </separator>
   </separator>
   <separator name="electronic mixer" >
    <i name="AMIX">      0.40000000</i>
    <i name="BMIX">      1.00000000</i>
    <i name="AMIN">      0.10000000</i>
    <i name="AMIX_MAG">      1.60000000</i>
    <i name="BMIX_MAG">      1.00000000</i>
    <separator name="electronic mixer details" >
     <i type="int" name="IMIX">     4</i>
     <i type="logical" name="MIXFIRST"> F  </i>
     <i type="int" name="MAXMIX">   -45</i>
     <i name="WC">    100.00000000</i>
     <i type="int" name="INIMIX">     1</i>
     <i type="int" name="MIXPRE">     1</i>
     <i type="int" name="MREMOVE">     5</i>
    </separator>
   </separator>
   <separator name="electronic dipolcorrection" >
    <i type="logical" name="LDIPOL"> F  </i>
    <i type="logical" name="LMONO"> F  </i>
    <i type="int" name="IDIPOL">     0</i>
    <i name="EPSILON">      1.00000000</i>
    <v name="DIPOL">   -100.00000000   -100.00000000   -100.00000000</v>
    <i name="EFIELD">      0.00000000</i>
   </separator>
  </separator>
  <separator name="grids" >
   <i type="int" name="NGX">    28</i>
   <i type="int" name="NGY">    28</i>
   <i type="int" name="NGZ">    28</i>
   <i type="int" name="NGXF">    56</i>
   <i type="int" name="NGYF">    56</i>
   <i type="int" name="NGZF">    56</i>
   <i type="logical" name="ADDGRID"> F  </i>
  </separator>
  <separator name="ionic" >
   <i type="int" name="NSW">     0</i>
   <i type="int" name="IBRION">    -1</i>
   <i type="int" name="MDALGO">     0</i>
   <i type="int" name="ISIF">     2</i>
   <i name="PSTRESS">      0.00000000</i>
   <i name="EDIFFG">      0.00100000</i>
   <i type="int" name="NFREE">     0</i>
   <i name="POTIM">      0.50000000</i>
   <i name="SMASS">     -3.00000000</i>
   <i name="SCALEE">      1.00000000</i>
  </separator>
  <separator name="ionic md" >
   <i name="TEBEG">      0.00010000</i>
   <i name="TEEND">      0.00010000</i>
   <i type="int" name="NBLOCK">     1</i>
   <i type="int" name="KBLOCK">     1</i>
   <i type="int" name="NPACO">   256</i>
   <i name="APACO">     10.00000000</i>
  </separator>
  <separator name="symmetry" >
   <i type="int" name="ISYM">     2</i>
   <i name="SYMPREC">      0.00001000</i>
  </separator>
  <separator name="dos" >
   <i type="int" name="LORBIT">     0</i>
   <v name="RWIGS">     -1.00000000</v>
   <i type="int" name="NEDOS">   301</i>
   <i name="EMIN">     10.00000000</i>
   <i name="EMAX">    -10.00000000</i>
   <i name="EFERMI">      0.00000000</i>
  </separator>
  <separator name="writing" >
   <i type="int" name="NWRITE">     2</i>
   <i type="logical" name="LWAVE"> T  </i>
   <i type="logical" name="LDOWNSAMPLE"> F  </i>
   <i type="logical" name="LCHARG"> T  </i>
   <i type="logical" name="LPARD"> F  </i>
   <i type="logical" name="LVTOT"> F  </i>
   <i type="logical" name="LVHAR"> F  </i>
   <i type="logical" name="LELF"> F  </i>
   <i type="logical" name="LOPTICS"> F  </i>
   <v name="STM">      0.00000000      0.00000000      0.00000000      0.00000000      0.00000000      0.00000000      0.00000000</v>
  </separator>
  <separator name="performance" >
   <i type="int" name="NPAR">    48</i>
   <i type="int" name="NSIM">     4</i>
   <i type="int" name="NBLK">    -1</i>
   <i type="logical" name="LPLANE"> T  </i>
   <i type="logical" name="LSCALAPACK"> T  </i>
   <i type="logical" name="LSCAAWARE"> T  </i>
   <i type="logical" name="LSCALU"> F  </i>
   <i type="logical" name="LASYNC"> F  </i>
   <i type="logical" name="LORBITALREAL"> F  </i>
  </separator>
  <separator name="miscellaneous" >
   <i type="int" name="IDIOT">     3</i>
   <i type="int" name="PHON_NSTRUCT">    -1</i>
   <i type="logical" name="LMUSIC"> F  </i>
   <v name="POMASS">     51.99600000</v>
   <v name="DARWINR">      0.00000000</v>
   <v name="DARWINV">      1.00000000</v>
   <i type="logical" name="LCORR"> T  </i>
  </separator>
  <i type="logical" name="GGA_COMPAT"> T  </i>
  <i type="logical" name="LBERRY"> F  </i>
  <i type="int" name="ICORELEVEL">     0</i>
  <i type="logical" name="LDAU"> F  </i>
  <i type="int" name="I_CONSTRAINED_M">     0</i>
  <separator name="electronic exchange-correlation" >
   <i type="string" name="GGA">--</i>
   <i type="int" name="VOSKOWN">     0</i>
   <i type="logical" name="LHFCALC"> F  </i>
   <i type="string" name="PRECFOCK"></i>
   <i type="logical" name="LSYMGRAD"> F  </i>
   <i type="logical" name="LHFONE"> F  </i>
   <i type="logical" name="LRHFCALC"> F  </i>
   <i type="logical" name="LTHOMAS"> F  </i>
   <i type="logical" name="LMODELHF"> F  </i>
   <i type="logical" name="LFOCKACE"> F  </i>
   <i name="ENCUT4O">     -1.00000000</i>
   <i type="int" name="EXXOEP">     0</i>
   <i type="int" name="FOURORBIT">     0</i>
   <i name="AEXX">      0.00000000</i>
   <i name="HFALPHA">      0.00000000</i>
   <i name="MCALPHA">      0.00000000</i>
   <i name="ALDAX">      1.00000000</i>
   <i name="AGGAX">      1.00000000</i>
   <i name="ALDAC">      1.00000000</i>
   <i name="AGGAC">      1.00000000</i>
   <i type="int" name="NKREDX">     1</i>
   <i type="int" name="NKREDY">     1</i>
   <i type="int" name="NKREDZ">     1</i>
   <i type="logical" name="SHIFTRED"> F  </i>
   <i type="logical" name="ODDONLY"> F  </i>
   <i type="logical" name="EVENONLY"> F  </i>
   <i type="int" name="LMAXFOCK">     0</i>
   <i type="int" name="NMAXFOCKAE">     0</i>
   <i type="logical" name="LFOCKAEDFT"> F  </i>
   <i name="HFSCREEN">      0.00000000</i>
   <i name="HFSCREENC">      0.00000000</i>
   <i type="int" name="NBANDSGWLOW">     0</i>
  </separator>
  <separator name="vdW DFT" >
   <i type="logical" name="LUSE_VDW"> F  </i>
   <i name="Zab_VDW">     -0.84910000</i>
   <i name="PARAM1">      0.12340000</i>
   <i name="PARAM2">      1.00000000</i>
   <i name="PARAM3">      0.00000000</i>
  </separator>
  <separator name="model GW" >
   <i type="int" name="MODEL_GW">     0</i>
   <i name="MODEL_EPS0">      6.83948745</i>
   <i name="MODEL_ALPHA">      1.00000000</i>
  </separator>
  <separator name="linear response parameters" >
   <i type="logical" name="LEPSILON"> F  </i>
   <i type="logical" name="LRPA"> F  </i>
   <i type="logical" name="LNABLA"> F  </i>
   <i type="logical" name="LVEL"> F  </i>
   <i name="CSHIFT">      0.10000000</i>
   <i name="OMEGAMAX">     -1.00000000</i>
   <i name="DEG_THRESHOLD">      0.00200000</i>
   <i name="RTIME">     -0.10000000</i>
   <i name="WPLASMAI">      0.00000000</i>
   <v name="DFIELD">      0.00000000      0.00000000      0.00000000</v>
   <v name="WPLASMA">      0.00000000      0.00000000      0.00000000      0.00000000      0.00000000      0.00000000      0.00000000      0.00000000      0.00000000</v>
  </separator>
  <separator name="orbital magnetization" >
   <i type="logical" name="NUCIND"> F  </i>
   <v name="MAGPOS">      0.00000000      0.00000000      0.00000000</v>
   <i type="logical" name="LNICSALL"> T  </i>
   <i type="logical" name="ORBITALMAG"> F  </i>
   <i type="logical" name="LMAGBLOCH"> F  </i>
   <i type="logical" name="LCHIMAG"> F  </i>
   <i type="logical" name="LGAUGE"> T  </i>
   <i type="int" name="MAGATOM">     0</i>
   <v name="MAGDIPOL">      0.00000000      0.00000000      0.00000000</v>
   <v name="AVECCONST">      0.00000000      0.00000000      0.00000000</v>
  </separator>
  <separator name="response functions" >
   <i type="logical" name="LFINITE_TEMPERATURE"> F  </i>
   <i type="logical" name="LADDER"> F  </i>
   <i type="logical" name="LRPAFORCE"> F  </i>
   <i type="logical" name="LFXC"> F  </i>
   <i type="logical" name="LHARTREE"> T  </i>
   <i type="int" name="IBSE">     0</i>
   <v type="int" name="KPOINT">    -1     0     0     0</v>
   <i type="logical" name="LTCTC"> F  </i>
   <i type="logical" name="LTCTE"> F  </i>
   <i type="logical" name="LTETE"> F  </i>
   <i type="logical" name="LTRIPLET"> F  </i>
   <i type="logical" name="LFXCEPS"> F  </i>
   <i type="logical" name="LFXHEG"> F  </i>
   <i type="int" name="NATURALO">     2</i>
   <i type="logical" name="LHOLEGF"> F  </i>
   <i type="logical" name="L2ORDER"> F  </i>
   <i type="logical" name="LDMP1"> F  </i>
   <i type="logical" name="LMP2LT"> F  </i>
   <i type="logical" name="LSMP2LT"> F  </i>
   <i type="logical" name="LGWLF"> F  </i>
   <i name="ENCUTGW">     -2.00000000</i>
   <i name="ENCUTGWSOFT">     -2.00000000</i>
   <i name="ENCUTLF">     -1.00000000</i>
   <i type="logical" name="LESF_SPLINES"> F  </i>
   <i type="int" name="LMAXMP2">    -1</i>
   <i name="SCISSOR">      0.00000000</i>
   <i type="int" name="NOMEGA">     0</i>
   <i type="int" name="NOMEGAR">     0</i>
   <i type="int" name="NBANDSGW">    -1</i>
   <i type="int" name="NBANDSO">    -1</i>
   <i type="int" name="NBANDSV">    -1</i>
   <i type="int" name="NELMGW">     1</i>
   <i type="int" name="NELMHF">     1</i>
   <i type="int" name="DIM">     3</i>
   <i type="int" name="IESPILON">     4</i>
   <i type="int" name="ANTIRES">     0</i>
   <i name="OMEGAMAX">    -30.00000000</i>
   <i name="OMEGAMIN">    -30.00000000</i>
   <i name="OMEGATL">   -200.00000000</i>
   <i type="int" name="OMEGAGRID">     0</i>
   <i name="CSHIFT">     -0.10000000</i>
   <i type="logical" name="LSELFENERGY"> F  </i>
   <i type="logical" name="LSPECTRAL"> F  </i>
   <i type="logical" name="LSPECTRALGW"> F  </i>
   <i type="logical" name="LSINGLES"> F  </i>
   <i type="logical" name="LFERMIGW"> F  </i>
   <i type="logical" name="ODDONLYGW"> F  </i>
   <i type="logical" name="EVENONLYGW"> F  </i>
   <i type="int" name="NKREDLFX">     1</i>
   <i type="int" name="NKREDLFY">     1</i>
   <i type="int" name="NKREDLFZ">     1</i>
   <i type="int" name="MAXMEM">  2800</i>
   <i type="int" name="TELESCOPE">     0</i>
   <i type="int" name="NTAUPAR">    -1</i>
   <i type="int" name="NOMEGAPAR">    -1</i>
   <i name="DAMP_NEWTON">      0.80000001</i>
   <i name="LAMBDA">      1.00000000</i>
  </separator>
  <separator name="External order field" >
   <i name="OFIELD_KAPPA">      0.00000000</i>
   <v name="OFIELD_K">      0.00000000      0.00000000      0.00000000</v>
   <i name="OFIELD_Q6_NEAR">      0.00000000</i>
   <i name="OFIELD_Q6_FAR">      0.00000000</i>
   <i name="OFIELD_A">      0.00000000</i>
  </separator>
  <separator name="optional k-points parameters" >
   <i type="int" name="KPOINTS_OPT_MODE">     1</i>
   <i type="logical" name="LKPOINTS_OPT"> F  </i>
  </separator>
 </parameters>
 <atominfo>
  <atoms>      16 </atoms>
  <types>       1 </types>
  <array name="atoms" >
   <dimension dim="1">ion</dimension>
   <field type="string">element</field>
   <field type="int">atomtype</field>
   <set>
    <rc><c>Cr</c><c>   1</c></rc>
    <rc><c>Cr</c><c>   1</c></rc>
    <rc><c>Cr</c><c>   1</c></rc>
    <rc><c>Cr</c><c>   1</c></rc>
    <rc><c>Cr</c><c>   1</c></rc>
    <rc><c>Cr</c><c>   1</c></rc>
    <rc><c>Cr</c><c>   1</c></rc>
    <rc><c>Cr</c><c>   1</c></rc>
    <rc><c>Cr</c><c>   1</c></rc>
    <rc><c>Cr</c><c>   1</c></rc>
    <rc><c>Cr</c><c>   1</c></rc>
    <rc><c>Cr</c><c>   1</c></rc>
    <rc><c>Cr</c><c>   1</c></rc>
    <rc><c>Cr</c><c>   1</c></rc>
    <rc><c>Cr</c><c>   1</c></rc>
    <rc><c>Cr</c><c>   1</c></rc>
   </set>
  </array>
  <array name="atomtypes" >
   <dimension dim="1">type</dimension>
   <field type="int">atomspertype</field>
   <field type="string">element</field>
   <field>mass</field>
   <field>valence</field>
   <field type="string">pseudopotential</field>
   <set>
    <rc><c>  16</c><c>Cr</c><c>     51.99600000</c><c>      6.00000000</c><c>  PAW_PBE Cr 06Sep2000                  </c></rc>
   </set>
  </array>
 </atominfo>
 <structure name="initialpos" >
  <crystal>
   <varray name="basis" >
    <v>       5.67105810       0.00000000       0.00000000 </v>
    <v>       0.00000000       5.67105810       0.00000000 </v>
    <v>       0.00000000       0.00000000       5.67105810 </v>
   </varray>
   <i name="volume">    182.38633194 </i>
   <varray name="rec_basis" >
    <v>       0.17633394       0.00000000       0.00000000 </v>
    <v>       0.00000000       0.17633394       0.00000000 </v>
    <v>       0.00000000       0.00000000       0.17633394 </v>
   </varray>
  </crystal>
  <varray name="positions" >
   <v>       0.00176334       0.00000000       0.00000000 </v>
   <v>       0.50000000       0.00000000       0.00000000 </v>
   <v>       0.00000000       0.50000000       0.00000000 </v>
   <v>       0.50000000       0.50000000       0.00000000 </v>
   <v>       0.00000000       0.00000000       0.50000000 </v>
   <v>       0.50000000       0.00000000       0.50000000 </v>
   <v>       0.00000000       0.50000000       0.50000000 </v>
   <v>       0.50000000       0.50000000       0.50000000 </v>
   <v>       0.25000000       0.25000000       0.25000000 </v>
   <v>       0.75000000       0.25000000       0.25000000 </v>
   <v>       0.25000000       0.75000000       0.25000000 </v>
   <v>       0.75000000       0.75000000       0.25000000 </v>
   <v>       0.25000000       0.25000000       0.75000000 </v>
   <v>       0.75000000       0.25000000       0.75000000 </v>
   <v>       0.25000000       0.75000000       0.75000000 </v>
   <v>       0.75000000       0.75000000       0.75000000 </v>
  </varray>
 </structure>
 <calculation>
  <scstep>
   <time name="dav">    1.41    1.42</time>
   <time name="total">    1.42    1.44</time>
   <energy>
    <i name="alphaZ">    580.11637181 </i>
    <i name="ewald">  -5322.59825107 </i>
    <i name="hartreedc">   -510.28227855 </i>
    <i name="XCdc">   -307.11772205 </i>
    <i name="pawpsdc">   4442.47979069 </i>
    <i name="pawaedc">  -4126.11229946 </i>
    <i name="eentropy">     -0.02145743 </i>
    <i name="bandstr">   1219.38194050 </i>
    <i name="atom">   4430.14614032 </i>
    <i name="e_fr_energy">    405.99223476 </i>
    <i name="e_wo_entrp">    406.01369219 </i>
    <i name="e_0_energy">    406.00296348 </i>
   </energy>
  </scstep>
  <scstep>
   <time name="dav">    1.45    1.46</time>
   <time name="total">    1.45    1.46</time>
   <energy>
    <i name="e_fr_energy">   -159.43291120 </i>
    <i name="e_wo_entrp">   -159.42706041 </i>
    <i name="e_0_energy">   -159.42998581 </i>
   </energy>
  </scstep>
  <scstep>
   <time name="dav">    1.74    1.75</time>
   <time name="total">    1.74    1.75</time>
   <energy>
    <i name="e_fr_energy">   -177.00702098 </i>
    <i name="e_wo_entrp">   -177.00237623 </i>
    <i name="e_0_energy">   -177.00469860 </i>
   </energy>
  </scstep>
  <scstep>
   <time name="dav">    1.72    1.73</time>
   <time name="total">    1.72    1.73</time>
   <energy>
    <i name="e_fr_energy">   -177.28395958 </i>
    <i name="e_wo_entrp">   -177.27935012 </i>
    <i name="e_0_energy">   -177.28165485 </i>
   </energy>
  </scstep>
  <scstep>
   <time name="dav">    1.66    1.67</time>
   <time name="total">    1.67    1.68</time>
   <energy>
    <i name="e_fr_energy">   -177.28866837 </i>
    <i name="e_wo_entrp">   -177.28405854 </i>
    <i name="e_0_energy">   -177.28636346 </i>
   </energy>
  </scstep>
  <scstep>
   <time name="dav">    1.44    1.45</time>
   <time name="total">    1.46    1.47</time>
   <energy>
    <i name="e_fr_energy">   -152.68267953 </i>
    <i name="e_wo_entrp">   -152.67421706 </i>
    <i name="e_0_energy">   -152.67844829 </i>
   </energy>
  </scstep>
  <scstep>
   <time name="dav">    2.05    2.06</time>
   <time name="total">    2.06    2.07</time>
   <energy>
    <i name="e_fr_energy">   -152.12519535 </i>
    <i name="e_wo_entrp">   -152.10832598 </i>
    <i name="e_0_energy">   -152.11676067 </i>
   </energy>
  </scstep>
  <scstep>
   <time name="dav">    2.13    2.13</time>
   <time name="total">    2.14    2.15</time>
   <energy>
    <i name="e_fr_energy">   -152.92253570 </i>
    <i name="e_wo_entrp">   -152.90943694 </i>
    <i name="e_0_energy">   -152.91598632 </i>
   </energy>
  </scstep>
  <scstep>
   <time name="dav">    2.10    2.11</time>
   <time name="total">    2.12    2.12</time>
   <energy>
    <i name="e_fr_energy">   -151.81420232 </i>
    <i name="e_wo_entrp">   -151.79768725 </i>
    <i name="e_0_energy">   -151.80594479 </i>
   </energy>
  </scstep>
  <scstep>
   <time name="dav">    2.20    2.21</time>
   <time name="total">    2.22    2.24</time>
   <energy>
    <i name="e_fr_energy">   -151.81715661 </i>
    <i name="e_wo_entrp">   -151.80083050 </i>
    <i name="e_0_energy">   -151.80899356 </i>
   </energy>
  </scstep>
  <scstep>
   <time name="dav">    2.57    2.58</time>
   <time name="total">    2.59    2.60</time>
   <energy>
    <i name="e_fr_energy">   -151.80380311 </i>
    <i name="e_wo_entrp">   -151.78837210 </i>
    <i name="e_0_energy">   -151.79608760 </i>
   </energy>
  </scstep>
  <scstep>
   <time name="dav">    2.25    2.26</time>
   <time name="total">    2.26    2.27</time>
   <energy>
    <i name="e_fr_energy">   -151.80440133 </i>
    <i name="e_wo_entrp">   -151.78904821 </i>
    <i name="e_0_energy">   -151.79672477 </i>
   </energy>
  </scstep>
  <scstep>
   <time name="dav">    2.12    2.12</time>
   <time name="total">    2.13    2.14</time>
   <energy>
    <i name="e_fr_energy">   -151.80390842 </i>
    <i name="e_wo_entrp">   -151.78858039 </i>
    <i name="e_0_energy">   -151.79624441 </i>
   </energy>
  </scstep>
  <scstep>
   <time name="dav">    1.20    1.20</time>
   <time name="total">    1.20    1.20</time>
   <energy>
    <i name="alphaZ">    580.11637181 </i>
    <i name="ewald">  -5322.59825107 </i>
    <i name="hartreedc">   -345.40644307 </i>
    <i name="XCdc">   -310.16071984 </i>
    <i name="pawpsdc">   6654.02654081 </i>
    <i name="pawaedc">  -6340.96658238 </i>
    <i name="eentropy">     -0.01537152 </i>
    <i name="bandstr">    503.05443762 </i>
    <i name="atom">   4430.14614032 </i>
    <i name="e_fr_energy">   -151.80387733 </i>
    <i name="e_wo_entrp">   -151.78850581 </i>
    <i name="e_0_energy">   -151.79619157 </i>
   </energy>
  </scstep>
  <structure>
   <crystal>
    <varray name="basis" >
     <v>       5.67105810       0.00000000       0.00000000 </v>
     <v>       0.00000000       5.67105810       0.00000000 </v>
     <v>       0.00000000       0.00000000       5.67105810 </v>
    </varray>
    <i name="volume">    182.38633194 </i>
    <varray name="rec_basis" >
     <v>       0.17633394       0.00000000       0.00000000 </v>
     <v>       0.00000000       0.17633394       0.00000000 </v>
     <v>       0.00000000       0.00000000       0.17633394 </v>
    </varray>
   </crystal>
   <varray name="positions" >
    <v>       0.00176334       0.00000000       0.00000000 </v>
    <v>       0.50000000       0.00000000       0.00000000 </v>
    <v>       0.00000000       0.50000000       0.00000000 </v>
    <v>       0.50000000       0.50000000       0.00000000 </v>
    <v>       0.00000000       0.00000000       0.50000000 </v>
    <v>       0.50000000       0.00000000       0.50000000 </v>
    <v>       0.00000000       0.50000000       0.50000000 </v>
    <v>       0.50000000       0.50000000       0.50000000 </v>
    <v>       0.25000000       0.25000000       0.25000000 </v>
    <v>       0.75000000       0.25000000       0.25000000 </v>
    <v>       0.25000000       0.75000000       0.25000000 </v>
    <v>       0.75000000       0.75000000       0.25000000 </v>
    <v>       0.25000000       0.25000000       0.75000000 </v>
    <v>       0.75000000       0.25000000       0.75000000 </v>
    <v>       0.25000000       0.75000000       0.75000000 </v>
    <v>       0.75000000       0.75000000       0.75000000 </v>
   </varray>
  </structure>
  <varray name="forces" >
   <v>      -0.12266304      -0.00000000      -0.00000000 </v>
   <v>       0.06011876       0.00000000      -0.00000000 </v>
   <v>      -0.00362897      -0.00000000      -0.00000000 </v>
   <v>       0.00973338       0.00000000      -0.00000000 </v>
   <v>      -0.00362897       0.00000000      -0.00000000 </v>
   <v>       0.00973338       0.00000000      -0.00000000 </v>
   <v>       0.00220877      -0.00000000      -0.00000000 </v>
   <v>       0.00039790      -0.00000000      -0.00000000 </v>
   <v>       0.01467843       0.00690842       0.00690842 </v>
   <v>      -0.00274623      -0.00327306      -0.00327306 </v>
   <v>       0.01467843      -0.00690842       0.00690842 </v>
   <v>      -0.00274623       0.00327306      -0.00327306 </v>
   <v>       0.01467843       0.00690842      -0.00690842 </v>
   <v>      -0.00274623      -0.00327306       0.00327306 </v>
   <v>       0.01467843      -0.00690842      -0.00690842 </v>
   <v>      -0.00274623       0.00327306       0.00327306 </v>
  </varray>
  <varray name="stress" >
   <v>       0.13000866      -0.00000000       0.00000000 </v>
   <v>       0.00000000       0.10136531       0.00000000 </v>
   <v>       0.00000000       0.00000000       0.10136531 </v>
  </varray>
  <energy>
   <i name="e_fr_energy">   -151.80387733 </i>
   <i name="e_wo_entrp">   -151.78850581 </i>
   <i name="e_0_energy">   -151.79619157 </i>
  </energy>
  <time name="totalsc">   27.46   27.71</time>
  <eigenvalues>
   <array>
    <dimension dim="1">band</dimension>
    <dimension dim="2">kpoint</dimension>
    <dimension dim="3">spin</dimension>
    <field>eigene</field>
    <field>occ</field>
    <set>
     <set comment="spin 1">
      <set comment="kpoint 1">
       <r>   -0.1210    1.0000 </r>
       <r>    3.2563    1.0000 </r>
       <r>    3.2563    1.0000 </r>
       <r>    3.2563    1.0000 </r>
       <r>    3.2564    1.0000 </r>
       <r>    3.2564    1.0000 </r>
       <r>    3.2564    1.0000 </r>
       <r>    3.3422    1.0000 </r>
       <r>    3.3423    1.0000 </r>
       <r>    3.7786    1.0000 </r>
       <r>    3.7795    1.0000 </r>
       <r>    3.7797    1.0000 </r>
       <r>    3.7797    1.0000 </r>
       <r>    3.7797    1.0000 </r>
       <r>    3.7810    1.0000 </r>
       <r>    5.2404    1.0000 </r>
       <r>    5.2408    1.0000 </r>
       <r>    5.2408    1.0000 </r>
       <r>    5.2411    1.0000 </r>
       <r>    5.2411    1.0000 </r>
       <r>    5.2415    1.0000 </r>
       <r>    5.3866    1.0000 </r>
       <r>    5.3866    1.0000 </r>
       <r>    5.3880    1.0000 </r>
       <r>    5.3881    1.0000 </r>
       <r>    5.3894    1.0000 </r>
       <r>    5.3894    1.0000 </r>
       <r>    5.8781    1.0000 </r>
       <r>    5.8845    1.0000 </r>
       <r>    5.8849    1.0000 </r>
       <r>    5.8849    1.0000 </r>
       <r>    5.8855    1.0000 </r>
       <r>    5.8919    1.0000 </r>
       <r>    6.8076    1.0000 </r>
       <r>    6.8077    1.0000 </r>
       <r>    6.8077    1.0000 </r>
       <r>    7.3212    1.0000 </r>
       <r>    7.3212    1.0000 </r>
       <r>    7.3267    1.0000 </r>
       <r>    7.3275    1.0000 </r>
       <r>    7.3275    1.0000 </r>
       <r>    7.3275    1.0000 </r>
       <r>    7.3276    1.0000 </r>
       <r>    7.3276    1.0000 </r>
       <r>    7.3276    1.0000 </r>
       <r>    7.3288    1.0000 </r>
       <r>    7.3345    1.0000 </r>
       <r>    7.3345    1.0000 </r>
       <r>    8.4162    0.0000 </r>
       <r>    8.4247    0.0000 </r>
       <r>    8.4247    0.0000 </r>
       <r>    8.4249    0.0000 </r>
       <r>    8.4249    0.0000 </r>
       <r>    8.4334    0.0000 </r>
       <r>    8.8531    0.0000 </r>
       <r>    8.8531    0.0000 </r>
       <r>    8.8656    0.0000 </r>
       <r>    8.8658    0.0000 </r>
       <r>    8.8658    0.0000 </r>
       <r>    8.8661    0.0000 </r>
       <r>    8.8661    0.0000 </r>
       <r>    8.8662    0.0000 </r>
       <r>    8.9083    0.0000 </r>
       <r>    8.9083    0.0000 </r>
       <r>    8.9084    0.0000 </r>
       <r>    8.9089    0.0000 </r>
       <r>    8.9089    0.0000 </r>
       <r>    8.9090    0.0000 </r>
       <r>    9.1966    0.0000 </r>
       <r>    9.1970    0.0000 </r>
       <r>    9.1970    0.0000 </r>
       <r>    9.1970    0.0000 </r>
       <r>    9.1974    0.0000 </r>
       <r>    9.1981    0.0000 </r>
       <r>    9.2584    0.0000 </r>
       <r>    9.2584    0.0000 </r>
       <r>    9.2588    0.0000 </r>
       <r>    9.2589    0.0000 </r>
       <r>   10.2073    0.0000 </r>
       <r>   10.2073    0.0000 </r>
       <r>   10.2073    0.0000 </r>
       <r>   10.2920    0.0000 </r>
       <r>   10.2971    0.0000 </r>
       <r>   10.2972    0.0000 </r>
       <r>   10.2972    0.0000 </r>
       <r>   10.2979    0.0000 </r>
       <r>   10.3029    0.0000 </r>
       <r>   10.6041    0.0000 </r>
       <r>   10.6046    0.0000 </r>
       <r>   10.6046    0.0000 </r>
       <r>   10.6050    0.0000 </r>
       <r>   10.6050    0.0000 </r>
       <r>   10.6056    0.0000 </r>
       <r>   17.7939    0.0000 </r>
       <r>   17.7941    0.0000 </r>
       <r>   17.7942    0.0000 </r>
      </set>
      <set comment="kpoint 2">
       <r>    0.0330    1.0000 </r>
       <r>    2.9981    1.0000 </r>
       <r>    3.3173    1.0000 </r>
       <r>    3.3173    1.0000 </r>
       <r>    3.3173    1.0000 </r>
       <r>    3.3173    1.0000 </r>
       <r>    3.3803    1.0000 </r>
       <r>    3.3804    1.0000 </r>
       <r>    3.4225    1.0000 </r>
       <r>    3.4320    1.0000 </r>
       <r>    3.8175    1.0000 </r>
       <r>    3.8175    1.0000 </r>
       <r>    3.8175    1.0000 </r>
       <r>    3.8177    1.0000 </r>
       <r>    4.2060    1.0000 </r>
       <r>    5.1879    1.0000 </r>
       <r>    5.1914    1.0000 </r>
       <r>    5.1914    1.0000 </r>
       <r>    5.2196    1.0000 </r>
       <r>    5.2196    1.0000 </r>
       <r>    5.2212    1.0000 </r>
       <r>    5.2213    1.0000 </r>
       <r>    5.3244    1.0000 </r>
       <r>    5.3249    1.0000 </r>
       <r>    5.3249    1.0000 </r>
       <r>    5.3255    1.0000 </r>
       <r>    5.7228    1.0000 </r>
       <r>    5.7228    1.0000 </r>
       <r>    5.8118    1.0000 </r>
       <r>    5.8125    1.0000 </r>
       <r>    5.8125    1.0000 </r>
       <r>    5.8130    1.0000 </r>
       <r>    6.6114    1.0000 </r>
       <r>    6.8011    1.0000 </r>
       <r>    6.8011    1.0000 </r>
       <r>    6.8602    1.0000 </r>
       <r>    7.0039    1.0000 </r>
       <r>    7.0044    1.0000 </r>
       <r>    7.0044    1.0000 </r>
       <r>    7.0057    1.0000 </r>
       <r>    7.0452    1.0000 </r>
       <r>    7.0452    1.0000 </r>
       <r>    7.5195    1.0000 </r>
       <r>    7.5197    1.0000 </r>
       <r>    7.5199    1.0000 </r>
       <r>    7.5199    1.0000 </r>
       <r>    7.7380    0.9602 </r>
       <r>    7.7380    0.9602 </r>
       <r>    7.9914    0.0000 </r>
       <r>    8.0808    0.0000 </r>
       <r>    8.0815    0.0000 </r>
       <r>    8.0815    0.0000 </r>
       <r>    8.0824    0.0000 </r>
       <r>    8.4024    0.0000 </r>
       <r>    8.4024    0.0000 </r>
       <r>    8.7454    0.0000 </r>
       <r>    8.7539    0.0000 </r>
       <r>    8.7543    0.0000 </r>
       <r>    8.7543    0.0000 </r>
       <r>    8.7544    0.0000 </r>
       <r>    8.8102    0.0000 </r>
       <r>    8.8107    0.0000 </r>
       <r>    8.8107    0.0000 </r>
       <r>    8.8114    0.0000 </r>
       <r>    8.8690    0.0000 </r>
       <r>    8.8899    0.0000 </r>
       <r>    8.8903    0.0000 </r>
       <r>    8.8948    0.0000 </r>
       <r>    9.2010    0.0000 </r>
       <r>    9.2012    0.0000 </r>
       <r>    9.2290    0.0000 </r>
       <r>    9.2293    0.0000 </r>
       <r>    9.2542    0.0000 </r>
       <r>    9.2547    0.0000 </r>
       <r>    9.7606    0.0000 </r>
       <r>    9.8061    0.0000 </r>
       <r>    9.8064    0.0000 </r>
       <r>    9.8064    0.0000 </r>
       <r>    9.8075    0.0000 </r>
       <r>   10.0085    0.0000 </r>
       <r>   10.0085    0.0000 </r>
       <r>   10.1436    0.0000 </r>
       <r>   10.3176    0.0000 </r>
       <r>   10.3177    0.0000 </r>
       <r>   10.3177    0.0000 </r>
       <r>   10.3183    0.0000 </r>
       <r>   10.5141    0.0000 </r>
       <r>   10.5148    0.0000 </r>
       <r>   10.5148    0.0000 </r>
       <r>   10.5156    0.0000 </r>
       <r>   11.2135    0.0000 </r>
       <r>   11.2236    0.0000 </r>
       <r>   11.2236    0.0000 </r>
       <r>   16.5795    0.0000 </r>
       <r>   16.5795    0.0000 </r>
       <r>   17.7375    0.0000 </r>
      </set>
      <set comment="kpoint 3">
       <r>    0.0330    1.0000 </r>
       <r>    2.9981    1.0000 </r>
       <r>    3.3167    1.0000 </r>
       <r>    3.3173    1.0000 </r>
       <r>    3.3174    1.0000 </r>
       <r>    3.3179    1.0000 </r>
       <r>    3.3803    1.0000 </r>
       <r>    3.3803    1.0000 </r>
       <r>    3.4225    1.0000 </r>
       <r>    3.4319    1.0000 </r>
       <r>    3.8167    1.0000 </r>
       <r>    3.8175    1.0000 </r>
       <r>    3.8176    1.0000 </r>
       <r>    3.8184    1.0000 </r>
       <r>    4.2059    1.0000 </r>
       <r>    5.1864    1.0000 </r>
       <r>    5.1915    1.0000 </r>
       <r>    5.1925    1.0000 </r>
       <r>    5.2190    1.0000 </r>
       <r>    5.2194    1.0000 </r>
       <r>    5.2213    1.0000 </r>
       <r>    5.2221    1.0000 </r>
       <r>    5.3243    1.0000 </r>
       <r>    5.3248    1.0000 </r>
       <r>    5.3251    1.0000 </r>
       <r>    5.3257    1.0000 </r>
       <r>    5.7230    1.0000 </r>
       <r>    5.7230    1.0000 </r>
       <r>    5.8066    1.0000 </r>
       <r>    5.8123    1.0000 </r>
       <r>    5.8124    1.0000 </r>
       <r>    5.8182    1.0000 </r>
       <r>    6.6113    1.0000 </r>
       <r>    6.8009    1.0000 </r>
       <r>    6.8011    1.0000 </r>
       <r>    6.8603    1.0000 </r>
       <r>    7.0034    1.0000 </r>
       <r>    7.0045    1.0000 </r>
       <r>    7.0047    1.0000 </r>
       <r>    7.0063    1.0000 </r>
       <r>    7.0449    1.0000 </r>
       <r>    7.0450    1.0000 </r>
       <r>    7.5154    1.0000 </r>
       <r>    7.5197    1.0000 </r>
       <r>    7.5198    1.0000 </r>
       <r>    7.5240    1.0000 </r>
       <r>    7.7380    0.9602 </r>
       <r>    7.7381    0.9599 </r>
       <r>    7.9915    0.0000 </r>
       <r>    8.0791    0.0000 </r>
       <r>    8.0814    0.0000 </r>
       <r>    8.0815    0.0000 </r>
       <r>    8.0841    0.0000 </r>
       <r>    8.4024    0.0000 </r>
       <r>    8.4025    0.0000 </r>
       <r>    8.7453    0.0000 </r>
       <r>    8.7486    0.0000 </r>
       <r>    8.7541    0.0000 </r>
       <r>    8.7542    0.0000 </r>
       <r>    8.7598    0.0000 </r>
       <r>    8.8105    0.0000 </r>
       <r>    8.8109    0.0000 </r>
       <r>    8.8109    0.0000 </r>
       <r>    8.8110    0.0000 </r>
       <r>    8.8693    0.0000 </r>
       <r>    8.8901    0.0000 </r>
       <r>    8.8902    0.0000 </r>
       <r>    8.8947    0.0000 </r>
       <r>    9.2010    0.0000 </r>
       <r>    9.2013    0.0000 </r>
       <r>    9.2290    0.0000 </r>
       <r>    9.2293    0.0000 </r>
       <r>    9.2543    0.0000 </r>
       <r>    9.2546    0.0000 </r>
       <r>    9.7608    0.0000 </r>
       <r>    9.8055    0.0000 </r>
       <r>    9.8064    0.0000 </r>
       <r>    9.8067    0.0000 </r>
       <r>    9.8075    0.0000 </r>
       <r>   10.0085    0.0000 </r>
       <r>   10.0086    0.0000 </r>
       <r>   10.1435    0.0000 </r>
       <r>   10.3130    0.0000 </r>
       <r>   10.3177    0.0000 </r>
       <r>   10.3179    0.0000 </r>
       <r>   10.3228    0.0000 </r>
       <r>   10.5138    0.0000 </r>
       <r>   10.5146    0.0000 </r>
       <r>   10.5148    0.0000 </r>
       <r>   10.5160    0.0000 </r>
       <r>   11.2133    0.0000 </r>
       <r>   11.2237    0.0000 </r>
       <r>   11.2237    0.0000 </r>
       <r>   16.5795    0.0000 </r>
       <r>   16.5795    0.0000 </r>
       <r>   17.7377    0.0000 </r>
      </set>
      <set comment="kpoint 4">
       <r>    0.4823    1.0000 </r>
       <r>    2.0677    1.0000 </r>
       <r>    3.4836    1.0000 </r>
       <r>    3.4836    1.0000 </r>
       <r>    3.4836    1.0000 </r>
       <r>    3.4837    1.0000 </r>
       <r>    3.6603    1.0000 </r>
       <r>    3.6743    1.0000 </r>
       <r>    3.7302    1.0000 </r>
       <r>    3.7303    1.0000 </r>
       <r>    3.8325    1.0000 </r>
       <r>    3.8325    1.0000 </r>
       <r>    3.8325    1.0000 </r>
       <r>    3.8326    1.0000 </r>
       <r>    4.2274    1.0000 </r>
       <r>    4.5637    1.0000 </r>
       <r>    4.7873    1.0000 </r>
       <r>    4.7874    1.0000 </r>
       <r>    5.1123    1.0000 </r>
       <r>    5.1123    1.0000 </r>
       <r>    5.1678    1.0000 </r>
       <r>    5.1678    1.0000 </r>
       <r>    5.5705    1.0000 </r>
       <r>    5.5710    1.0000 </r>
       <r>    5.5710    1.0000 </r>
       <r>    5.5717    1.0000 </r>
       <r>    5.8567    1.0000 </r>
       <r>    5.8574    1.0000 </r>
       <r>    5.8574    1.0000 </r>
       <r>    5.8582    1.0000 </r>
       <r>    6.2056    1.0000 </r>
       <r>    6.2056    1.0000 </r>
       <r>    6.4622    1.0000 </r>
       <r>    6.4628    1.0000 </r>
       <r>    6.4628    1.0000 </r>
       <r>    6.4636    1.0000 </r>
       <r>    6.7914    1.0000 </r>
       <r>    6.7914    1.0000 </r>
       <r>    6.8792    1.0000 </r>
       <r>    6.8792    1.0000 </r>
       <r>    7.0156    1.0000 </r>
       <r>    7.1119    1.0000 </r>
       <r>    7.1127    1.0000 </r>
       <r>    7.1127    1.0000 </r>
       <r>    7.1135    1.0000 </r>
       <r>    7.3152    1.0000 </r>
       <r>    7.5875    1.0000 </r>
       <r>    7.5875    1.0000 </r>
       <r>    7.5972    1.0000 </r>
       <r>    7.9157    0.0005 </r>
       <r>    7.9160    0.0005 </r>
       <r>    7.9160    0.0005 </r>
       <r>    7.9160    0.0005 </r>
       <r>    8.2678    0.0000 </r>
       <r>    8.2678    0.0000 </r>
       <r>    8.4315    0.0000 </r>
       <r>    8.6205    0.0000 </r>
       <r>    8.6209    0.0000 </r>
       <r>    8.6209    0.0000 </r>
       <r>    8.6215    0.0000 </r>
       <r>    8.9567    0.0000 </r>
       <r>    8.9568    0.0000 </r>
       <r>    9.0131    0.0000 </r>
       <r>    9.1515    0.0000 </r>
       <r>    9.1519    0.0000 </r>
       <r>    9.2122    0.0000 </r>
       <r>    9.2124    0.0000 </r>
       <r>    9.2430    0.0000 </r>
       <r>    9.2435    0.0000 </r>
       <r>    9.2936    0.0000 </r>
       <r>    9.3132    0.0000 </r>
       <r>    9.3137    0.0000 </r>
       <r>    9.3137    0.0000 </r>
       <r>    9.3142    0.0000 </r>
       <r>    9.4325    0.0000 </r>
       <r>    9.5077    0.0000 </r>
       <r>    9.5077    0.0000 </r>
       <r>    9.9579    0.0000 </r>
       <r>   10.2245    0.0000 </r>
       <r>   10.2245    0.0000 </r>
       <r>   10.2245    0.0000 </r>
       <r>   10.2251    0.0000 </r>
       <r>   10.2513    0.0000 </r>
       <r>   10.2521    0.0000 </r>
       <r>   10.2521    0.0000 </r>
       <r>   10.2527    0.0000 </r>
       <r>   10.3612    0.0000 </r>
       <r>   10.3612    0.0000 </r>
       <r>   10.3613    0.0000 </r>
       <r>   10.3618    0.0000 </r>
       <r>   12.3772    0.0000 </r>
       <r>   12.3772    0.0000 </r>
       <r>   12.5727    0.0000 </r>
       <r>   15.1045    0.0000 </r>
       <r>   15.1045    0.0000 </r>
       <r>   16.0993    0.0000 </r>
      </set>
      <set comment="kpoint 5">
       <r>    0.4823    1.0000 </r>
       <r>    2.0677    1.0000 </r>
       <r>    3.4827    1.0000 </r>
       <r>    3.4836    1.0000 </r>
       <r>    3.4837    1.0000 </r>
       <r>    3.4846    1.0000 </r>
       <r>    3.6604    1.0000 </r>
       <r>    3.6743    1.0000 </r>
       <r>    3.7302    1.0000 </r>
       <r>    3.7302    1.0000 </r>
       <r>    3.8318    1.0000 </r>
       <r>    3.8325    1.0000 </r>
       <r>    3.8325    1.0000 </r>
       <r>    3.8332    1.0000 </r>
       <r>    4.2273    1.0000 </r>
       <r>    4.5637    1.0000 </r>
       <r>    4.7872    1.0000 </r>
       <r>    4.7873    1.0000 </r>
       <r>    5.1123    1.0000 </r>
       <r>    5.1124    1.0000 </r>
       <r>    5.1677    1.0000 </r>
       <r>    5.1677    1.0000 </r>
       <r>    5.5698    1.0000 </r>
       <r>    5.5710    1.0000 </r>
       <r>    5.5712    1.0000 </r>
       <r>    5.5725    1.0000 </r>
       <r>    5.8527    1.0000 </r>
       <r>    5.8573    1.0000 </r>
       <r>    5.8574    1.0000 </r>
       <r>    5.8623    1.0000 </r>
       <r>    6.2056    1.0000 </r>
       <r>    6.2056    1.0000 </r>
       <r>    6.4610    1.0000 </r>
       <r>    6.4627    1.0000 </r>
       <r>    6.4629    1.0000 </r>
       <r>    6.4649    1.0000 </r>
       <r>    6.7913    1.0000 </r>
       <r>    6.7913    1.0000 </r>
       <r>    6.8790    1.0000 </r>
       <r>    6.8791    1.0000 </r>
       <r>    7.0157    1.0000 </r>
       <r>    7.1099    1.0000 </r>
       <r>    7.1125    1.0000 </r>
       <r>    7.1126    1.0000 </r>
       <r>    7.1157    1.0000 </r>
       <r>    7.3151    1.0000 </r>
       <r>    7.5859    1.0000 </r>
       <r>    7.5875    1.0000 </r>
       <r>    7.5989    1.0000 </r>
       <r>    7.9128    0.0007 </r>
       <r>    7.9159    0.0005 </r>
       <r>    7.9159    0.0005 </r>
       <r>    7.9188    0.0004 </r>
       <r>    8.2678    0.0000 </r>
       <r>    8.2678    0.0000 </r>
       <r>    8.4314    0.0000 </r>
       <r>    8.6200    0.0000 </r>
       <r>    8.6209    0.0000 </r>
       <r>    8.6211    0.0000 </r>
       <r>    8.6218    0.0000 </r>
       <r>    8.9567    0.0000 </r>
       <r>    8.9569    0.0000 </r>
       <r>    9.0131    0.0000 </r>
       <r>    9.1515    0.0000 </r>
       <r>    9.1518    0.0000 </r>
       <r>    9.2122    0.0000 </r>
       <r>    9.2125    0.0000 </r>
       <r>    9.2430    0.0000 </r>
       <r>    9.2432    0.0000 </r>
       <r>    9.2933    0.0000 </r>
       <r>    9.3096    0.0000 </r>
       <r>    9.3135    0.0000 </r>
       <r>    9.3138    0.0000 </r>
       <r>    9.3181    0.0000 </r>
       <r>    9.4325    0.0000 </r>
       <r>    9.5079    0.0000 </r>
       <r>    9.5079    0.0000 </r>
       <r>    9.9579    0.0000 </r>
       <r>   10.2231    0.0000 </r>
       <r>   10.2246    0.0000 </r>
       <r>   10.2249    0.0000 </r>
       <r>   10.2262    0.0000 </r>
       <r>   10.2500    0.0000 </r>
       <r>   10.2518    0.0000 </r>
       <r>   10.2520    0.0000 </r>
       <r>   10.2543    0.0000 </r>
       <r>   10.3574    0.0000 </r>
       <r>   10.3612    0.0000 </r>
       <r>   10.3614    0.0000 </r>
       <r>   10.3656    0.0000 </r>
       <r>   12.3772    0.0000 </r>
       <r>   12.3773    0.0000 </r>
       <r>   12.5726    0.0000 </r>
       <r>   15.1045    0.0000 </r>
       <r>   15.1045    0.0000 </r>
       <r>   16.0992    0.0000 </r>
      </set>
      <set comment="kpoint 6">
       <r>    1.1845    1.0000 </r>
       <r>    1.1875    1.0000 </r>
       <r>    3.6924    1.0000 </r>
       <r>    3.6924    1.0000 </r>
       <r>    3.6940    1.0000 </r>
       <r>    3.6949    1.0000 </r>
       <r>    3.6963    1.0000 </r>
       <r>    3.6970    1.0000 </r>
       <r>    3.6987    1.0000 </r>
       <r>    3.6987    1.0000 </r>
       <r>    3.9853    1.0000 </r>
       <r>    3.9890    1.0000 </r>
       <r>    4.0415    1.0000 </r>
       <r>    4.0511    1.0000 </r>
       <r>    4.2357    1.0000 </r>
       <r>    4.2364    1.0000 </r>
       <r>    4.2399    1.0000 </r>
       <r>    4.2405    1.0000 </r>
       <r>    5.1160    1.0000 </r>
       <r>    5.1160    1.0000 </r>
       <r>    5.1200    1.0000 </r>
       <r>    5.1200    1.0000 </r>
       <r>    5.9565    1.0000 </r>
       <r>    5.9565    1.0000 </r>
       <r>    5.9566    1.0000 </r>
       <r>    5.9585    1.0000 </r>
       <r>    5.9635    1.0000 </r>
       <r>    5.9666    1.0000 </r>
       <r>    5.9666    1.0000 </r>
       <r>    5.9679    1.0000 </r>
       <r>    6.3062    1.0000 </r>
       <r>    6.3064    1.0000 </r>
       <r>    6.3064    1.0000 </r>
       <r>    6.3081    1.0000 </r>
       <r>    6.3108    1.0000 </r>
       <r>    6.3120    1.0000 </r>
       <r>    6.3120    1.0000 </r>
       <r>    6.3122    1.0000 </r>
       <r>    6.8044    1.0000 </r>
       <r>    6.8044    1.0000 </r>
       <r>    6.8071    1.0000 </r>
       <r>    6.8071    1.0000 </r>
       <r>    6.8326    1.0000 </r>
       <r>    6.8326    1.0000 </r>
       <r>    6.8342    1.0000 </r>
       <r>    6.8342    1.0000 </r>
       <r>    7.2614    1.0000 </r>
       <r>    7.2700    1.0000 </r>
       <r>    7.9362    0.0001 </r>
       <r>    7.9436    0.0000 </r>
       <r>    8.3074    0.0000 </r>
       <r>    8.3082    0.0000 </r>
       <r>    8.3113    0.0000 </r>
       <r>    8.3113    0.0000 </r>
       <r>    8.3134    0.0000 </r>
       <r>    8.3134    0.0000 </r>
       <r>    8.3165    0.0000 </r>
       <r>    8.3172    0.0000 </r>
       <r>    8.8813    0.0000 </r>
       <r>    8.8813    0.0000 </r>
       <r>    8.8840    0.0000 </r>
       <r>    8.8840    0.0000 </r>
       <r>    9.0477    0.0000 </r>
       <r>    9.0508    0.0000 </r>
       <r>    9.0523    0.0000 </r>
       <r>    9.0557    0.0000 </r>
       <r>    9.1935    0.0000 </r>
       <r>    9.1959    0.0000 </r>
       <r>    9.2256    0.0000 </r>
       <r>    9.2267    0.0000 </r>
       <r>    9.2284    0.0000 </r>
       <r>    9.2302    0.0000 </r>
       <r>    9.6633    0.0000 </r>
       <r>    9.6695    0.0000 </r>
       <r>    9.8317    0.0000 </r>
       <r>    9.8357    0.0000 </r>
       <r>    9.8362    0.0000 </r>
       <r>    9.8362    0.0000 </r>
       <r>    9.8399    0.0000 </r>
       <r>    9.8406    0.0000 </r>
       <r>    9.8406    0.0000 </r>
       <r>    9.8466    0.0000 </r>
       <r>   10.3632    0.0000 </r>
       <r>   10.3636    0.0000 </r>
       <r>   10.3664    0.0000 </r>
       <r>   10.3664    0.0000 </r>
       <r>   10.3685    0.0000 </r>
       <r>   10.3685    0.0000 </r>
       <r>   10.3717    0.0000 </r>
       <r>   10.3721    0.0000 </r>
       <r>   13.6912    0.0000 </r>
       <r>   13.6912    0.0000 </r>
       <r>   13.6971    0.0000 </r>
       <r>   13.6971    0.0000 </r>
       <r>   14.2583    0.0000 </r>
       <r>   14.2769    0.0000 </r>
      </set>
      <set comment="kpoint 7">
       <r>    1.1859    1.0000 </r>
       <r>    1.1861    1.0000 </r>
       <r>    3.6937    1.0000 </r>
       <r>    3.6943    1.0000 </r>
       <r>    3.6955    1.0000 </r>
       <r>    3.6956    1.0000 </r>
       <r>    3.6957    1.0000 </r>
       <r>    3.6960    1.0000 </r>
       <r>    3.6967    1.0000 </r>
       <r>    3.6970    1.0000 </r>
       <r>    3.9869    1.0000 </r>
       <r>    3.9872    1.0000 </r>
       <r>    4.0461    1.0000 </r>
       <r>    4.0465    1.0000 </r>
       <r>    4.2379    1.0000 </r>
       <r>    4.2380    1.0000 </r>
       <r>    4.2381    1.0000 </r>
       <r>    4.2383    1.0000 </r>
       <r>    5.1178    1.0000 </r>
       <r>    5.1178    1.0000 </r>
       <r>    5.1181    1.0000 </r>
       <r>    5.1181    1.0000 </r>
       <r>    5.9589    1.0000 </r>
       <r>    5.9599    1.0000 </r>
       <r>    5.9605    1.0000 </r>
       <r>    5.9613    1.0000 </r>
       <r>    5.9615    1.0000 </r>
       <r>    5.9619    1.0000 </r>
       <r>    5.9630    1.0000 </r>
       <r>    5.9658    1.0000 </r>
       <r>    6.3008    1.0000 </r>
       <r>    6.3069    1.0000 </r>
       <r>    6.3091    1.0000 </r>
       <r>    6.3093    1.0000 </r>
       <r>    6.3093    1.0000 </r>
       <r>    6.3106    1.0000 </r>
       <r>    6.3111    1.0000 </r>
       <r>    6.3170    1.0000 </r>
       <r>    6.8055    1.0000 </r>
       <r>    6.8055    1.0000 </r>
       <r>    6.8058    1.0000 </r>
       <r>    6.8060    1.0000 </r>
       <r>    6.8333    1.0000 </r>
       <r>    6.8334    1.0000 </r>
       <r>    6.8334    1.0000 </r>
       <r>    6.8334    1.0000 </r>
       <r>    7.2656    1.0000 </r>
       <r>    7.2661    1.0000 </r>
       <r>    7.9397    0.0000 </r>
       <r>    7.9400    0.0000 </r>
       <r>    8.3076    0.0000 </r>
       <r>    8.3090    0.0000 </r>
       <r>    8.3120    0.0000 </r>
       <r>    8.3121    0.0000 </r>
       <r>    8.3124    0.0000 </r>
       <r>    8.3131    0.0000 </r>
       <r>    8.3149    0.0000 </r>
       <r>    8.3172    0.0000 </r>
       <r>    8.8823    0.0000 </r>
       <r>    8.8824    0.0000 </r>
       <r>    8.8829    0.0000 </r>
       <r>    8.8829    0.0000 </r>
       <r>    9.0514    0.0000 </r>
       <r>    9.0515    0.0000 </r>
       <r>    9.0517    0.0000 </r>
       <r>    9.0522    0.0000 </r>
       <r>    9.1944    0.0000 </r>
       <r>    9.1949    0.0000 </r>
       <r>    9.2274    0.0000 </r>
       <r>    9.2276    0.0000 </r>
       <r>    9.2276    0.0000 </r>
       <r>    9.2286    0.0000 </r>
       <r>    9.6662    0.0000 </r>
       <r>    9.6667    0.0000 </r>
       <r>    9.8328    0.0000 </r>
       <r>    9.8368    0.0000 </r>
       <r>    9.8375    0.0000 </r>
       <r>    9.8382    0.0000 </r>
       <r>    9.8382    0.0000 </r>
       <r>    9.8386    0.0000 </r>
       <r>    9.8396    0.0000 </r>
       <r>    9.8455    0.0000 </r>
       <r>   10.3609    0.0000 </r>
       <r>   10.3663    0.0000 </r>
       <r>   10.3671    0.0000 </r>
       <r>   10.3674    0.0000 </r>
       <r>   10.3674    0.0000 </r>
       <r>   10.3680    0.0000 </r>
       <r>   10.3686    0.0000 </r>
       <r>   10.3746    0.0000 </r>
       <r>   13.6941    0.0000 </r>
       <r>   13.6942    0.0000 </r>
       <r>   13.6942    0.0000 </r>
       <r>   13.6942    0.0000 </r>
       <r>   14.2675    0.0000 </r>
       <r>   14.2675    0.0000 </r>
      </set>
      <set comment="kpoint 8">
       <r>    0.1844    1.0000 </r>
       <r>    3.0638    1.0000 </r>
       <r>    3.0646    1.0000 </r>
       <r>    3.2692    1.0000 </r>
       <r>    3.4405    1.0000 </r>
       <r>    3.4408    1.0000 </r>
       <r>    3.4413    1.0000 </r>
       <r>    3.4416    1.0000 </r>
       <r>    3.4624    1.0000 </r>
       <r>    3.5023    1.0000 </r>
       <r>    3.5197    1.0000 </r>
       <r>    3.8709    1.0000 </r>
       <r>    3.8709    1.0000 </r>
       <r>    4.2434    1.0000 </r>
       <r>    4.2447    1.0000 </r>
       <r>    5.0159    1.0000 </r>
       <r>    5.0160    1.0000 </r>
       <r>    5.1897    1.0000 </r>
       <r>    5.1902    1.0000 </r>
       <r>    5.2959    1.0000 </r>
       <r>    5.2968    1.0000 </r>
       <r>    5.2974    1.0000 </r>
       <r>    5.2984    1.0000 </r>
       <r>    5.3352    1.0000 </r>
       <r>    5.3543    1.0000 </r>
       <r>    5.3544    1.0000 </r>
       <r>    5.4807    1.0000 </r>
       <r>    5.7148    1.0000 </r>
       <r>    5.7149    1.0000 </r>
       <r>    5.7289    1.0000 </r>
       <r>    5.7290    1.0000 </r>
       <r>    6.3677    1.0000 </r>
       <r>    6.3740    1.0000 </r>
       <r>    6.6900    1.0000 </r>
       <r>    6.7401    1.0000 </r>
       <r>    6.7437    1.0000 </r>
       <r>    6.7857    1.0000 </r>
       <r>    6.8774    1.0000 </r>
       <r>    6.8774    1.0000 </r>
       <r>    7.0172    1.0000 </r>
       <r>    7.3924    1.0000 </r>
       <r>    7.3994    1.0000 </r>
       <r>    7.4068    1.0000 </r>
       <r>    7.4092    1.0000 </r>
       <r>    7.4380    1.0000 </r>
       <r>    7.6015    1.0000 </r>
       <r>    7.6017    1.0000 </r>
       <r>    7.7886    0.6257 </r>
       <r>    7.7904    0.6072 </r>
       <r>    7.8463    0.0950 </r>
       <r>    7.8467    0.0931 </r>
       <r>    7.8489    0.0832 </r>
       <r>    7.8490    0.0826 </r>
       <r>    8.0821    0.0000 </r>
       <r>    8.3157    0.0000 </r>
       <r>    8.3225    0.0000 </r>
       <r>    8.6183    0.0000 </r>
       <r>    8.7285    0.0000 </r>
       <r>    8.8270    0.0000 </r>
       <r>    8.8278    0.0000 </r>
       <r>    8.8291    0.0000 </r>
       <r>    8.8300    0.0000 </r>
       <r>    8.8625    0.0000 </r>
       <r>    8.8775    0.0000 </r>
       <r>    8.9725    0.0000 </r>
       <r>    8.9727    0.0000 </r>
       <r>    9.1588    0.0000 </r>
       <r>    9.1897    0.0000 </r>
       <r>    9.1923    0.0000 </r>
       <r>    9.2070    0.0000 </r>
       <r>    9.2073    0.0000 </r>
       <r>    9.2427    0.0000 </r>
       <r>    9.2430    0.0000 </r>
       <r>    9.4937    0.0000 </r>
       <r>    9.4943    0.0000 </r>
       <r>    9.4955    0.0000 </r>
       <r>    9.4965    0.0000 </r>
       <r>    9.6848    0.0000 </r>
       <r>    9.7379    0.0000 </r>
       <r>    9.7382    0.0000 </r>
       <r>    9.8129    0.0000 </r>
       <r>   10.2334    0.0000 </r>
       <r>   10.2853    0.0000 </r>
       <r>   10.3746    0.0000 </r>
       <r>   10.3748    0.0000 </r>
       <r>   10.5776    0.0000 </r>
       <r>   10.8232    0.0000 </r>
       <r>   11.1799    0.0000 </r>
       <r>   11.1812    0.0000 </r>
       <r>   11.1820    0.0000 </r>
       <r>   11.1834    0.0000 </r>
       <r>   11.3041    0.0000 </r>
       <r>   11.3071    0.0000 </r>
       <r>   15.8891    0.0000 </r>
       <r>   15.8891    0.0000 </r>
       <r>   17.7862    0.0000 </r>
      </set>
      <set comment="kpoint 9">
       <r>    0.1844    1.0000 </r>
       <r>    3.0640    1.0000 </r>
       <r>    3.0644    1.0000 </r>
       <r>    3.2692    1.0000 </r>
       <r>    3.4398    1.0000 </r>
       <r>    3.4408    1.0000 </r>
       <r>    3.4412    1.0000 </r>
       <r>    3.4423    1.0000 </r>
       <r>    3.4624    1.0000 </r>
       <r>    3.5024    1.0000 </r>
       <r>    3.5196    1.0000 </r>
       <r>    3.8708    1.0000 </r>
       <r>    3.8709    1.0000 </r>
       <r>    4.2440    1.0000 </r>
       <r>    4.2441    1.0000 </r>
       <r>    5.0152    1.0000 </r>
       <r>    5.0167    1.0000 </r>
       <r>    5.1897    1.0000 </r>
       <r>    5.1901    1.0000 </r>
       <r>    5.2964    1.0000 </r>
       <r>    5.2966    1.0000 </r>
       <r>    5.2970    1.0000 </r>
       <r>    5.2984    1.0000 </r>
       <r>    5.3352    1.0000 </r>
       <r>    5.3532    1.0000 </r>
       <r>    5.3556    1.0000 </r>
       <r>    5.4809    1.0000 </r>
       <r>    5.7107    1.0000 </r>
       <r>    5.7191    1.0000 </r>
       <r>    5.7284    1.0000 </r>
       <r>    5.7294    1.0000 </r>
       <r>    6.3706    1.0000 </r>
       <r>    6.3711    1.0000 </r>
       <r>    6.6902    1.0000 </r>
       <r>    6.7414    1.0000 </r>
       <r>    6.7423    1.0000 </r>
       <r>    6.7857    1.0000 </r>
       <r>    6.8758    1.0000 </r>
       <r>    6.8790    1.0000 </r>
       <r>    7.0171    1.0000 </r>
       <r>    7.3949    1.0000 </r>
       <r>    7.3964    1.0000 </r>
       <r>    7.4076    1.0000 </r>
       <r>    7.4092    1.0000 </r>
       <r>    7.4378    1.0000 </r>
       <r>    7.6006    1.0000 </r>
       <r>    7.6026    1.0000 </r>
       <r>    7.7891    0.6211 </r>
       <r>    7.7901    0.6101 </r>
       <r>    7.8444    0.1047 </r>
       <r>    7.8462    0.0955 </r>
       <r>    7.8496    0.0803 </r>
       <r>    7.8508    0.0754 </r>
       <r>    8.0820    0.0000 </r>
       <r>    8.3186    0.0000 </r>
       <r>    8.3197    0.0000 </r>
       <r>    8.6182    0.0000 </r>
       <r>    8.7285    0.0000 </r>
       <r>    8.8280    0.0000 </r>
       <r>    8.8280    0.0000 </r>
       <r>    8.8289    0.0000 </r>
       <r>    8.8292    0.0000 </r>
       <r>    8.8626    0.0000 </r>
       <r>    8.8772    0.0000 </r>
       <r>    8.9694    0.0000 </r>
       <r>    8.9757    0.0000 </r>
       <r>    9.1587    0.0000 </r>
       <r>    9.1904    0.0000 </r>
       <r>    9.1915    0.0000 </r>
       <r>    9.2067    0.0000 </r>
       <r>    9.2076    0.0000 </r>
       <r>    9.2426    0.0000 </r>
       <r>    9.2432    0.0000 </r>
       <r>    9.4943    0.0000 </r>
       <r>    9.4944    0.0000 </r>
       <r>    9.4949    0.0000 </r>
       <r>    9.4966    0.0000 </r>
       <r>    9.6847    0.0000 </r>
       <r>    9.7378    0.0000 </r>
       <r>    9.7384    0.0000 </r>
       <r>    9.8129    0.0000 </r>
       <r>   10.2334    0.0000 </r>
       <r>   10.2853    0.0000 </r>
       <r>   10.3706    0.0000 </r>
       <r>   10.3790    0.0000 </r>
       <r>   10.5775    0.0000 </r>
       <r>   10.8232    0.0000 </r>
       <r>   11.1783    0.0000 </r>
       <r>   11.1804    0.0000 </r>
       <r>   11.1833    0.0000 </r>
       <r>   11.1844    0.0000 </r>
       <r>   11.3055    0.0000 </r>
       <r>   11.3056    0.0000 </r>
       <r>   15.8875    0.0000 </r>
       <r>   15.8906    0.0000 </r>
       <r>   17.8041    0.0000 </r>
      </set>
      <set comment="kpoint 10">
       <r>    0.6252    1.0000 </r>
       <r>    2.1684    1.0000 </r>
       <r>    3.2037    1.0000 </r>
       <r>    3.2857    1.0000 </r>
       <r>    3.6062    1.0000 </r>
       <r>    3.6062    1.0000 </r>
       <r>    3.6987    1.0000 </r>
       <r>    3.7242    1.0000 </r>
       <r>    3.7693    1.0000 </r>
       <r>    3.7886    1.0000 </r>
       <r>    3.7886    1.0000 </r>
       <r>    3.9242    1.0000 </r>
       <r>    3.9242    1.0000 </r>
       <r>    4.2087    1.0000 </r>
       <r>    4.2816    1.0000 </r>
       <r>    4.6109    1.0000 </r>
       <r>    4.7612    1.0000 </r>
       <r>    4.7613    1.0000 </r>
       <r>    5.2062    1.0000 </r>
       <r>    5.2064    1.0000 </r>
       <r>    5.2305    1.0000 </r>
       <r>    5.2307    1.0000 </r>
       <r>    5.3750    1.0000 </r>
       <r>    5.5068    1.0000 </r>
       <r>    5.5151    1.0000 </r>
       <r>    5.5151    1.0000 </r>
       <r>    5.6762    1.0000 </r>
       <r>    5.6763    1.0000 </r>
       <r>    5.7961    1.0000 </r>
       <r>    6.0775    1.0000 </r>
       <r>    6.0775    1.0000 </r>
       <r>    6.2481    1.0000 </r>
       <r>    6.2559    1.0000 </r>
       <r>    6.4920    1.0000 </r>
       <r>    6.4921    1.0000 </r>
       <r>    6.5970    1.0000 </r>
       <r>    6.6010    1.0000 </r>
       <r>    6.6486    1.0000 </r>
       <r>    6.6567    1.0000 </r>
       <r>    6.7513    1.0000 </r>
       <r>    6.8097    1.0000 </r>
       <r>    6.9913    1.0000 </r>
       <r>    6.9913    1.0000 </r>
       <r>    7.2360    1.0000 </r>
       <r>    7.2542    1.0000 </r>
       <r>    7.2732    1.0000 </r>
       <r>    7.2733    1.0000 </r>
       <r>    7.6236    1.0000 </r>
       <r>    7.9058    0.0014 </r>
       <r>    7.9128    0.0007 </r>
       <r>    7.9307    0.0001 </r>
       <r>    7.9377    0.0000 </r>
       <r>    7.9457    0.0000 </r>
       <r>    7.9458    0.0000 </r>
       <r>    8.1973    0.0000 </r>
       <r>    8.3785    0.0000 </r>
       <r>    8.4837    0.0000 </r>
       <r>    8.6391    0.0000 </r>
       <r>    8.6392    0.0000 </r>
       <r>    8.7317    0.0000 </r>
       <r>    8.8786    0.0000 </r>
       <r>    8.8981    0.0000 </r>
       <r>    8.8982    0.0000 </r>
       <r>    8.9619    0.0000 </r>
       <r>    9.1230    0.0000 </r>
       <r>    9.1234    0.0000 </r>
       <r>    9.1305    0.0000 </r>
       <r>    9.2386    0.0000 </r>
       <r>    9.2389    0.0000 </r>
       <r>    9.3037    0.0000 </r>
       <r>    9.3040    0.0000 </r>
       <r>    9.3259    0.0000 </r>
       <r>    9.3362    0.0000 </r>
       <r>    9.3503    0.0000 </r>
       <r>    9.3505    0.0000 </r>
       <r>    9.3952    0.0000 </r>
       <r>    9.5969    0.0000 </r>
       <r>    9.6660    0.0000 </r>
       <r>    9.6908    0.0000 </r>
       <r>    9.6912    0.0000 </r>
       <r>    9.7140    0.0000 </r>
       <r>    9.9140    0.0000 </r>
       <r>   10.1635    0.0000 </r>
       <r>   10.4592    0.0000 </r>
       <r>   10.5457    0.0000 </r>
       <r>   10.5459    0.0000 </r>
       <r>   11.0394    0.0000 </r>
       <r>   11.0394    0.0000 </r>
       <r>   11.5005    0.0000 </r>
       <r>   11.5179    0.0000 </r>
       <r>   12.2810    0.0000 </r>
       <r>   12.2810    0.0000 </r>
       <r>   12.7298    0.0000 </r>
       <r>   14.7296    0.0000 </r>
       <r>   14.7296    0.0000 </r>
       <r>   16.3201    0.0000 </r>
      </set>
      <set comment="kpoint 11">
       <r>    0.6252    1.0000 </r>
       <r>    2.1684    1.0000 </r>
       <r>    3.2037    1.0000 </r>
       <r>    3.2858    1.0000 </r>
       <r>    3.6053    1.0000 </r>
       <r>    3.6071    1.0000 </r>
       <r>    3.6988    1.0000 </r>
       <r>    3.7243    1.0000 </r>
       <r>    3.7693    1.0000 </r>
       <r>    3.7880    1.0000 </r>
       <r>    3.7891    1.0000 </r>
       <r>    3.9237    1.0000 </r>
       <r>    3.9248    1.0000 </r>
       <r>    4.2087    1.0000 </r>
       <r>    4.2815    1.0000 </r>
       <r>    4.6109    1.0000 </r>
       <r>    4.7605    1.0000 </r>
       <r>    4.7619    1.0000 </r>
       <r>    5.2057    1.0000 </r>
       <r>    5.2070    1.0000 </r>
       <r>    5.2300    1.0000 </r>
       <r>    5.2309    1.0000 </r>
       <r>    5.3750    1.0000 </r>
       <r>    5.5070    1.0000 </r>
       <r>    5.5143    1.0000 </r>
       <r>    5.5158    1.0000 </r>
       <r>    5.6733    1.0000 </r>
       <r>    5.6791    1.0000 </r>
       <r>    5.7962    1.0000 </r>
       <r>    6.0775    1.0000 </r>
       <r>    6.0776    1.0000 </r>
       <r>    6.2481    1.0000 </r>
       <r>    6.2559    1.0000 </r>
       <r>    6.4904    1.0000 </r>
       <r>    6.4937    1.0000 </r>
       <r>    6.5977    1.0000 </r>
       <r>    6.6002    1.0000 </r>
       <r>    6.6496    1.0000 </r>
       <r>    6.6557    1.0000 </r>
       <r>    6.7512    1.0000 </r>
       <r>    6.8098    1.0000 </r>
       <r>    6.9904    1.0000 </r>
       <r>    6.9923    1.0000 </r>
       <r>    7.2361    1.0000 </r>
       <r>    7.2542    1.0000 </r>
       <r>    7.2731    1.0000 </r>
       <r>    7.2733    1.0000 </r>
       <r>    7.6236    1.0000 </r>
       <r>    7.9055    0.0014 </r>
       <r>    7.9121    0.0008 </r>
       <r>    7.9318    0.0001 </r>
       <r>    7.9372    0.0001 </r>
       <r>    7.9446    0.0000 </r>
       <r>    7.9472    0.0000 </r>
       <r>    8.1974    0.0000 </r>
       <r>    8.3784    0.0000 </r>
       <r>    8.4836    0.0000 </r>
       <r>    8.6382    0.0000 </r>
       <r>    8.6402    0.0000 </r>
       <r>    8.7316    0.0000 </r>
       <r>    8.8787    0.0000 </r>
       <r>    8.8974    0.0000 </r>
       <r>    8.8990    0.0000 </r>
       <r>    8.9619    0.0000 </r>
       <r>    9.1224    0.0000 </r>
       <r>    9.1238    0.0000 </r>
       <r>    9.1304    0.0000 </r>
       <r>    9.2384    0.0000 </r>
       <r>    9.2394    0.0000 </r>
       <r>    9.3032    0.0000 </r>
       <r>    9.3046    0.0000 </r>
       <r>    9.3258    0.0000 </r>
       <r>    9.3360    0.0000 </r>
       <r>    9.3489    0.0000 </r>
       <r>    9.3523    0.0000 </r>
       <r>    9.3951    0.0000 </r>
       <r>    9.5970    0.0000 </r>
       <r>    9.6661    0.0000 </r>
       <r>    9.6902    0.0000 </r>
       <r>    9.6916    0.0000 </r>
       <r>    9.7141    0.0000 </r>
       <r>    9.9140    0.0000 </r>
       <r>   10.1635    0.0000 </r>
       <r>   10.4591    0.0000 </r>
       <r>   10.5432    0.0000 </r>
       <r>   10.5485    0.0000 </r>
       <r>   11.0387    0.0000 </r>
       <r>   11.0401    0.0000 </r>
       <r>   11.5005    0.0000 </r>
       <r>   11.5179    0.0000 </r>
       <r>   12.2800    0.0000 </r>
       <r>   12.2820    0.0000 </r>
       <r>   12.7298    0.0000 </r>
       <r>   14.7283    0.0000 </r>
       <r>   14.7310    0.0000 </r>
       <r>   16.3200    0.0000 </r>
      </set>
      <set comment="kpoint 12">
       <r>    0.6252    1.0000 </r>
       <r>    2.1684    1.0000 </r>
       <r>    3.2037    1.0000 </r>
       <r>    3.2857    1.0000 </r>
       <r>    3.6062    1.0000 </r>
       <r>    3.6062    1.0000 </r>
       <r>    3.6987    1.0000 </r>
       <r>    3.7242    1.0000 </r>
       <r>    3.7693    1.0000 </r>
       <r>    3.7886    1.0000 </r>
       <r>    3.7886    1.0000 </r>
       <r>    3.9242    1.0000 </r>
       <r>    3.9242    1.0000 </r>
       <r>    4.2088    1.0000 </r>
       <r>    4.2815    1.0000 </r>
       <r>    4.6109    1.0000 </r>
       <r>    4.7612    1.0000 </r>
       <r>    4.7612    1.0000 </r>
       <r>    5.2064    1.0000 </r>
       <r>    5.2064    1.0000 </r>
       <r>    5.2305    1.0000 </r>
       <r>    5.2305    1.0000 </r>
       <r>    5.3751    1.0000 </r>
       <r>    5.5065    1.0000 </r>
       <r>    5.5151    1.0000 </r>
       <r>    5.5155    1.0000 </r>
       <r>    5.6762    1.0000 </r>
       <r>    5.6763    1.0000 </r>
       <r>    5.7961    1.0000 </r>
       <r>    6.0775    1.0000 </r>
       <r>    6.0775    1.0000 </r>
       <r>    6.2481    1.0000 </r>
       <r>    6.2558    1.0000 </r>
       <r>    6.4920    1.0000 </r>
       <r>    6.4921    1.0000 </r>
       <r>    6.5978    1.0000 </r>
       <r>    6.6002    1.0000 </r>
       <r>    6.6492    1.0000 </r>
       <r>    6.6561    1.0000 </r>
       <r>    6.7512    1.0000 </r>
       <r>    6.8097    1.0000 </r>
       <r>    6.9913    1.0000 </r>
       <r>    6.9914    1.0000 </r>
       <r>    7.2360    1.0000 </r>
       <r>    7.2541    1.0000 </r>
       <r>    7.2733    1.0000 </r>
       <r>    7.2733    1.0000 </r>
       <r>    7.6236    1.0000 </r>
       <r>    7.9042    0.0016 </r>
       <r>    7.9142    0.0006 </r>
       <r>    7.9312    0.0001 </r>
       <r>    7.9370    0.0001 </r>
       <r>    7.9458    0.0000 </r>
       <r>    7.9459    0.0000 </r>
       <r>    8.1974    0.0000 </r>
       <r>    8.3785    0.0000 </r>
       <r>    8.4836    0.0000 </r>
       <r>    8.6391    0.0000 </r>
       <r>    8.6391    0.0000 </r>
       <r>    8.7317    0.0000 </r>
       <r>    8.8788    0.0000 </r>
       <r>    8.8981    0.0000 </r>
       <r>    8.8982    0.0000 </r>
       <r>    8.9619    0.0000 </r>
       <r>    9.1231    0.0000 </r>
       <r>    9.1233    0.0000 </r>
       <r>    9.1304    0.0000 </r>
       <r>    9.2387    0.0000 </r>
       <r>    9.2389    0.0000 </r>
       <r>    9.3035    0.0000 </r>
       <r>    9.3037    0.0000 </r>
       <r>    9.3265    0.0000 </r>
       <r>    9.3358    0.0000 </r>
       <r>    9.3504    0.0000 </r>
       <r>    9.3509    0.0000 </r>
       <r>    9.3952    0.0000 </r>
       <r>    9.5969    0.0000 </r>
       <r>    9.6662    0.0000 </r>
       <r>    9.6908    0.0000 </r>
       <r>    9.6910    0.0000 </r>
       <r>    9.7140    0.0000 </r>
       <r>    9.9140    0.0000 </r>
       <r>   10.1635    0.0000 </r>
       <r>   10.4592    0.0000 </r>
       <r>   10.5457    0.0000 </r>
       <r>   10.5459    0.0000 </r>
       <r>   11.0393    0.0000 </r>
       <r>   11.0394    0.0000 </r>
       <r>   11.5005    0.0000 </r>
       <r>   11.5180    0.0000 </r>
       <r>   12.2810    0.0000 </r>
       <r>   12.2810    0.0000 </r>
       <r>   12.7298    0.0000 </r>
       <r>   14.7296    0.0000 </r>
       <r>   14.7296    0.0000 </r>
       <r>   16.3200    0.0000 </r>
      </set>
      <set comment="kpoint 13">
       <r>    1.3112    1.0000 </r>
       <r>    1.3142    1.0000 </r>
       <r>    3.2892    1.0000 </r>
       <r>    3.2913    1.0000 </r>
       <r>    3.8090    1.0000 </r>
       <r>    3.8111    1.0000 </r>
       <r>    3.8130    1.0000 </r>
       <r>    3.8151    1.0000 </r>
       <r>    3.9802    1.0000 </r>
       <r>    3.9839    1.0000 </r>
       <r>    4.0400    1.0000 </r>
       <r>    4.0454    1.0000 </r>
       <r>    4.1266    1.0000 </r>
       <r>    4.1342    1.0000 </r>
       <r>    4.2803    1.0000 </r>
       <r>    4.2813    1.0000 </r>
       <r>    4.2844    1.0000 </r>
       <r>    4.2853    1.0000 </r>
       <r>    5.1697    1.0000 </r>
       <r>    5.1706    1.0000 </r>
       <r>    5.1736    1.0000 </r>
       <r>    5.1745    1.0000 </r>
       <r>    5.7630    1.0000 </r>
       <r>    5.7653    1.0000 </r>
       <r>    5.7681    1.0000 </r>
       <r>    5.7705    1.0000 </r>
       <r>    5.8226    1.0000 </r>
       <r>    5.8254    1.0000 </r>
       <r>    5.9037    1.0000 </r>
       <r>    5.9082    1.0000 </r>
       <r>    6.2504    1.0000 </r>
       <r>    6.2518    1.0000 </r>
       <r>    6.3509    1.0000 </r>
       <r>    6.3514    1.0000 </r>
       <r>    6.3546    1.0000 </r>
       <r>    6.3549    1.0000 </r>
       <r>    6.5287    1.0000 </r>
       <r>    6.5323    1.0000 </r>
       <r>    6.5586    1.0000 </r>
       <r>    6.5622    1.0000 </r>
       <r>    6.6313    1.0000 </r>
       <r>    6.6315    1.0000 </r>
       <r>    6.6328    1.0000 </r>
       <r>    6.6331    1.0000 </r>
       <r>    6.7162    1.0000 </r>
       <r>    6.7184    1.0000 </r>
       <r>    7.5502    1.0000 </r>
       <r>    7.5565    1.0000 </r>
       <r>    8.0687    0.0000 </r>
       <r>    8.0754    0.0000 </r>
       <r>    8.1351    0.0000 </r>
       <r>    8.1401    0.0000 </r>
       <r>    8.3272    0.0000 </r>
       <r>    8.3309    0.0000 </r>
       <r>    8.3328    0.0000 </r>
       <r>    8.3364    0.0000 </r>
       <r>    8.4063    0.0000 </r>
       <r>    8.4096    0.0000 </r>
       <r>    8.5048    0.0000 </r>
       <r>    8.5056    0.0000 </r>
       <r>    8.7357    0.0000 </r>
       <r>    8.7388    0.0000 </r>
       <r>    9.0039    0.0000 </r>
       <r>    9.0074    0.0000 </r>
       <r>    9.0085    0.0000 </r>
       <r>    9.0122    0.0000 </r>
       <r>    9.1491    0.0000 </r>
       <r>    9.1517    0.0000 </r>
       <r>    9.2474    0.0000 </r>
       <r>    9.2484    0.0000 </r>
       <r>    9.2500    0.0000 </r>
       <r>    9.2516    0.0000 </r>
       <r>    9.4307    0.0000 </r>
       <r>    9.4334    0.0000 </r>
       <r>    9.5341    0.0000 </r>
       <r>    9.5362    0.0000 </r>
       <r>    9.6191    0.0000 </r>
       <r>    9.6211    0.0000 </r>
       <r>    9.6226    0.0000 </r>
       <r>    9.6243    0.0000 </r>
       <r>    9.9333    0.0000 </r>
       <r>    9.9371    0.0000 </r>
       <r>   10.1614    0.0000 </r>
       <r>   10.1626    0.0000 </r>
       <r>   10.7975    0.0000 </r>
       <r>   10.7991    0.0000 </r>
       <r>   10.8007    0.0000 </r>
       <r>   10.8021    0.0000 </r>
       <r>   11.6694    0.0000 </r>
       <r>   11.6718    0.0000 </r>
       <r>   13.4905    0.0000 </r>
       <r>   13.4913    0.0000 </r>
       <r>   13.4955    0.0000 </r>
       <r>   13.4963    0.0000 </r>
       <r>   14.4572    0.0000 </r>
       <r>   14.4746    0.0000 </r>
      </set>
      <set comment="kpoint 14">
       <r>    1.3126    1.0000 </r>
       <r>    1.3128    1.0000 </r>
       <r>    3.2902    1.0000 </r>
       <r>    3.2903    1.0000 </r>
       <r>    3.8108    1.0000 </r>
       <r>    3.8114    1.0000 </r>
       <r>    3.8129    1.0000 </r>
       <r>    3.8132    1.0000 </r>
       <r>    3.9821    1.0000 </r>
       <r>    3.9822    1.0000 </r>
       <r>    4.0425    1.0000 </r>
       <r>    4.0428    1.0000 </r>
       <r>    4.1302    1.0000 </r>
       <r>    4.1305    1.0000 </r>
       <r>    4.2821    1.0000 </r>
       <r>    4.2823    1.0000 </r>
       <r>    4.2832    1.0000 </r>
       <r>    4.2836    1.0000 </r>
       <r>    5.1710    1.0000 </r>
       <r>    5.1716    1.0000 </r>
       <r>    5.1723    1.0000 </r>
       <r>    5.1735    1.0000 </r>
       <r>    5.7651    1.0000 </r>
       <r>    5.7653    1.0000 </r>
       <r>    5.7683    1.0000 </r>
       <r>    5.7686    1.0000 </r>
       <r>    5.8238    1.0000 </r>
       <r>    5.8239    1.0000 </r>
       <r>    5.9057    1.0000 </r>
       <r>    5.9061    1.0000 </r>
       <r>    6.2512    1.0000 </r>
       <r>    6.2513    1.0000 </r>
       <r>    6.3498    1.0000 </r>
       <r>    6.3500    1.0000 </r>
       <r>    6.3556    1.0000 </r>
       <r>    6.3562    1.0000 </r>
       <r>    6.5306    1.0000 </r>
       <r>    6.5307    1.0000 </r>
       <r>    6.5602    1.0000 </r>
       <r>    6.5605    1.0000 </r>
       <r>    6.6318    1.0000 </r>
       <r>    6.6319    1.0000 </r>
       <r>    6.6324    1.0000 </r>
       <r>    6.6324    1.0000 </r>
       <r>    6.7170    1.0000 </r>
       <r>    6.7173    1.0000 </r>
       <r>    7.5533    1.0000 </r>
       <r>    7.5535    1.0000 </r>
       <r>    8.0719    0.0000 </r>
       <r>    8.0722    0.0000 </r>
       <r>    8.1374    0.0000 </r>
       <r>    8.1375    0.0000 </r>
       <r>    8.3291    0.0000 </r>
       <r>    8.3316    0.0000 </r>
       <r>    8.3320    0.0000 </r>
       <r>    8.3345    0.0000 </r>
       <r>    8.4077    0.0000 </r>
       <r>    8.4079    0.0000 </r>
       <r>    8.5053    0.0000 </r>
       <r>    8.5054    0.0000 </r>
       <r>    8.7371    0.0000 </r>
       <r>    8.7376    0.0000 </r>
       <r>    9.0067    0.0000 </r>
       <r>    9.0075    0.0000 </r>
       <r>    9.0080    0.0000 </r>
       <r>    9.0098    0.0000 </r>
       <r>    9.1501    0.0000 </r>
       <r>    9.1505    0.0000 </r>
       <r>    9.2482    0.0000 </r>
       <r>    9.2490    0.0000 </r>
       <r>    9.2493    0.0000 </r>
       <r>    9.2510    0.0000 </r>
       <r>    9.4321    0.0000 </r>
       <r>    9.4321    0.0000 </r>
       <r>    9.5350    0.0000 </r>
       <r>    9.5354    0.0000 </r>
       <r>    9.6191    0.0000 </r>
       <r>    9.6193    0.0000 </r>
       <r>    9.6243    0.0000 </r>
       <r>    9.6245    0.0000 </r>
       <r>    9.9351    0.0000 </r>
[...]
       <r>    5.0672    1.0000 </r>
       <r>    5.0672    1.0000 </r>
       <r>    5.0686    1.0000 </r>
       <r>    5.0689    1.0000 </r>
       <r>    5.0694    1.0000 </r>
       <r>    5.0696    1.0000 </r>
       <r>    5.0703    1.0000 </r>
       <r>    5.0703    1.0000 </r>
       <r>    5.0725    1.0000 </r>
       <r>    5.0725    1.0000 </r>
       <r>    5.0736    1.0000 </r>
       <r>    5.0783    1.0000 </r>
       <r>    5.6553    1.0000 </r>
       <r>    5.6553    1.0000 </r>
       <r>    5.6595    1.0000 </r>
       <r>    5.6618    1.0000 </r>
       <r>    5.6630    1.0000 </r>
       <r>    5.6639    1.0000 </r>
       <r>    5.6644    1.0000 </r>
       <r>    5.6644    1.0000 </r>
       <r>    5.6657    1.0000 </r>
       <r>    5.6675    1.0000 </r>
       <r>    5.6677    1.0000 </r>
       <r>    5.6677    1.0000 </r>
       <r>    5.6688    1.0000 </r>
       <r>    5.6688    1.0000 </r>
       <r>    5.6708    1.0000 </r>
       <r>    5.6708    1.0000 </r>
       <r>    5.6709    1.0000 </r>
       <r>    5.6709    1.0000 </r>
       <r>    5.6713    1.0000 </r>
       <r>    5.6726    1.0000 </r>
       <r>    5.6734    1.0000 </r>
       <r>    5.6749    1.0000 </r>
       <r>    5.6825    1.0000 </r>
       <r>    5.6825    1.0000 </r>
       <r>    8.8607    0.0000 </r>
       <r>    8.8633    0.0000 </r>
       <r>    8.8637    0.0000 </r>
       <r>    8.8637    0.0000 </r>
       <r>    8.8639    0.0000 </r>
       <r>    8.8639    0.0000 </r>
       <r>    8.8660    0.0000 </r>
       <r>    8.8663    0.0000 </r>
       <r>    8.8678    0.0000 </r>
       <r>    8.8679    0.0000 </r>
       <r>    8.8686    0.0000 </r>
       <r>    8.8686    0.0000 </r>
       <r>    8.8689    0.0000 </r>
       <r>    8.8689    0.0000 </r>
       <r>    8.8722    0.0000 </r>
       <r>    8.8741    0.0000 </r>
       <r>    9.2620    0.0000 </r>
       <r>    9.2654    0.0000 </r>
       <r>    9.2654    0.0000 </r>
       <r>    9.2664    0.0000 </r>
       <r>    9.2670    0.0000 </r>
       <r>    9.2673    0.0000 </r>
       <r>    9.2673    0.0000 </r>
       <r>    9.2690    0.0000 </r>
       <r>    9.2705    0.0000 </r>
       <r>    9.2706    0.0000 </r>
       <r>    9.2706    0.0000 </r>
       <r>    9.2708    0.0000 </r>
       <r>    9.2718    0.0000 </r>
       <r>    9.2744    0.0000 </r>
       <r>    9.2744    0.0000 </r>
       <r>    9.2779    0.0000 </r>
       <r>    9.9236    0.0000 </r>
       <r>    9.9289    0.0000 </r>
       <r>    9.9299    0.0000 </r>
       <r>    9.9299    0.0000 </r>
       <r>    9.9323    0.0000 </r>
       <r>    9.9323    0.0000 </r>
       <r>    9.9323    0.0000 </r>
       <r>    9.9382    0.0000 </r>
       <r>   16.7382    0.0000 </r>
       <r>   16.7385    0.0000 </r>
       <r>   16.7394    0.0000 </r>
       <r>   16.7423    0.0000 </r>
       <r>   16.7427    0.0000 </r>
       <r>   16.7449    0.0000 </r>
       <r>   16.7450    0.0000 </r>
       <r>   16.7523    0.0000 </r>
      </set>
     </set>
    </set>
   </array>
  </eigenvalues>
  <separator name="orbital magnetization" >
   <v name="MAGDIPOLOUT">      0.00000000      0.00000000      0.00000000</v>
  </separator>
  <dos>
   <i name="efermi">      7.79997159 </i>
   <total>
    <array>
     <dimension dim="1">gridpoints</dimension>
     <dimension dim="2">spin</dimension>
     <field>energy</field>
     <field>total</field>
     <field>integrated</field>
     <set>
      <set comment="spin 1">
       <r>    -1.0173     0.0000     0.0000 </r>
       <r>    -0.9516     0.0000     0.0000 </r>
       <r>    -0.8858     0.0000     0.0000 </r>
       <r>    -0.8201     0.0000     0.0000 </r>
       <r>    -0.7544     0.0000     0.0000 </r>
       <r>    -0.6887     0.0000     0.0000 </r>
       <r>    -0.6229     0.0000     0.0000 </r>
       <r>    -0.5572     0.0000     0.0000 </r>
       <r>    -0.4915     0.0000     0.0000 </r>
       <r>    -0.4258     0.0000     0.0000 </r>
       <r>    -0.3600     0.0000     0.0000 </r>
       <r>    -0.2943     0.0000     0.0000 </r>
       <r>    -0.2286     0.0002     0.0000 </r>
       <r>    -0.1629     0.0165     0.0011 </r>
       <r>    -0.0971     0.0891     0.0070 </r>
       <r>    -0.0314     0.0632     0.0111 </r>
       <r>     0.0343     0.4069     0.0378 </r>
       <r>     0.1000     0.4001     0.0641 </r>
       <r>     0.1658     0.5153     0.0980 </r>
       <r>     0.2315     1.0328     0.1659 </r>
       <r>     0.2972     0.3224     0.1871 </r>
       <r>     0.3630     0.7284     0.2350 </r>
       <r>     0.4287     0.2795     0.2533 </r>
       <r>     0.4944     0.4856     0.2852 </r>
       <r>     0.5601     0.4086     0.3121 </r>
       <r>     0.6259     1.6173     0.4184 </r>
       <r>     0.6916     1.6176     0.5247 </r>
       <r>     0.7573     1.3693     0.6147 </r>
       <r>     0.8230     1.8667     0.7374 </r>
       <r>     0.8888     0.1908     0.7499 </r>
       <r>     0.9545     0.0164     0.7510 </r>
       <r>     1.0202     0.5057     0.7843 </r>
       <r>     1.0859     1.0417     0.8527 </r>
       <r>     1.1517     1.0861     0.9241 </r>
       <r>     1.2174     2.7055     1.1019 </r>
       <r>     1.2831     1.2358     1.1832 </r>
       <r>     1.3488     2.2042     1.3280 </r>
       <r>     1.4146     1.2757     1.4119 </r>
       <r>     1.4803     2.1700     1.5545 </r>
       <r>     1.5460     0.6792     1.5991 </r>
       <r>     1.6117     0.8868     1.6574 </r>
       <r>     1.6775     1.9363     1.7847 </r>
       <r>     1.7432     1.6978     1.8963 </r>
       <r>     1.8089     3.6406     2.1356 </r>
       <r>     1.8746     2.7318     2.3151 </r>
       <r>     1.9404     0.1363     2.3241 </r>
       <r>     2.0061     0.0346     2.3263 </r>
       <r>     2.0718     0.4458     2.3556 </r>
       <r>     2.1375     1.6271     2.4626 </r>
       <r>     2.2033     5.4050     2.8178 </r>
       <r>     2.2690     3.4137     3.0422 </r>
       <r>     2.3347     3.5577     3.2760 </r>
       <r>     2.4004     2.0470     3.4106 </r>
       <r>     2.4662     2.3000     3.5617 </r>
       <r>     2.5319     2.4206     3.7208 </r>
       <r>     2.5976     4.2330     3.9990 </r>
       <r>     2.6633     1.0568     4.0685 </r>
       <r>     2.7291     2.4940     4.2324 </r>
       <r>     2.7948     3.1134     4.4370 </r>
       <r>     2.8605     2.7387     4.6171 </r>
       <r>     2.9262     6.1775     5.0231 </r>
       <r>     2.9920     2.4659     5.1851 </r>
       <r>     3.0577     2.5904     5.3554 </r>
       <r>     3.1234     3.8452     5.6081 </r>
       <r>     3.1891     4.5984     5.9104 </r>
       <r>     3.2549     9.2218     6.5165 </r>
       <r>     3.3206    17.0354     7.6361 </r>
       <r>     3.3863    11.1914     8.3717 </r>
       <r>     3.4520    17.8735     9.5464 </r>
       <r>     3.5178    11.1008    10.2760 </r>
       <r>     3.5835     9.4458    10.8969 </r>
       <r>     3.6492    10.8658    11.6110 </r>
       <r>     3.7150    10.0156    12.2693 </r>
       <r>     3.7807    23.6548    13.8240 </r>
       <r>     3.8464    32.0700    15.9319 </r>
       <r>     3.9121    16.3805    17.0085 </r>
       <r>     3.9779    14.9890    17.9936 </r>
       <r>     4.0436    11.1637    18.7274 </r>
       <r>     4.1093    20.7872    20.0936 </r>
       <r>     4.1750    28.5884    21.9726 </r>
       <r>     4.2408    22.0960    23.4249 </r>
       <r>     4.3065    30.6499    25.4393 </r>
       <r>     4.3722    27.5714    27.2515 </r>
       <r>     4.4379    23.2183    28.7775 </r>
       <r>     4.5037    13.8537    29.6881 </r>
       <r>     4.5694    12.5831    30.5151 </r>
       <r>     4.6351    15.0434    31.5038 </r>
       <r>     4.7008    13.8701    32.4155 </r>
       <r>     4.7666    13.1171    33.2776 </r>
       <r>     4.8323    13.4156    34.1593 </r>
       <r>     4.8980    13.7214    35.0612 </r>
       <r>     4.9637     8.2620    35.6042 </r>
       <r>     5.0295     6.5826    36.0368 </r>
       <r>     5.0952     6.0850    36.4368 </r>
       <r>     5.1609    16.4570    37.5184 </r>
       <r>     5.2266    32.6265    39.6628 </r>
       <r>     5.2924    41.3891    42.3831 </r>
       <r>     5.3581    44.7169    45.3222 </r>
       <r>     5.4238    41.7371    48.0654 </r>
       <r>     5.4895    31.8633    50.1596 </r>
       <r>     5.5553    24.9003    51.7962 </r>
       <r>     5.6210    19.7264    53.0927 </r>
       <r>     5.6867    26.2882    54.8205 </r>
       <r>     5.7524    33.9292    57.0505 </r>
       <r>     5.8182    27.3594    58.8487 </r>
       <r>     5.8839    20.2215    60.1778 </r>
       <r>     5.9496    25.7143    61.8679 </r>
       <r>     6.0153    31.0753    63.9103 </r>
       <r>     6.0811    26.9194    65.6796 </r>
       <r>     6.1468    27.3870    67.4796 </r>
       <r>     6.2125    31.4314    69.5455 </r>
       <r>     6.2782    33.0015    71.7145 </r>
       <r>     6.3440    30.4942    73.7188 </r>
       <r>     6.4097    36.4535    76.1147 </r>
       <r>     6.4754    35.0739    78.4199 </r>
       <r>     6.5411    32.0133    80.5240 </r>
       <r>     6.6069    25.9009    82.2264 </r>
       <r>     6.6726    32.1589    84.3400 </r>
       <r>     6.7383    21.3887    85.7458 </r>
       <r>     6.8040    13.6825    86.6451 </r>
       <r>     6.8698    11.4777    87.3995 </r>
       <r>     6.9355     8.8372    87.9803 </r>
       <r>     7.0012    15.8954    89.0250 </r>
       <r>     7.0669    13.7935    89.9316 </r>
       <r>     7.1327     5.9867    90.3251 </r>
       <r>     7.1984     4.6208    90.6288 </r>
       <r>     7.2641     9.8670    91.2773 </r>
       <r>     7.3299    12.6824    92.1109 </r>
       <r>     7.3956     9.0839    92.7079 </r>
       <r>     7.4613    10.7579    93.4150 </r>
       <r>     7.5270     8.2493    93.9572 </r>
       <r>     7.5928    10.3244    94.6358 </r>
       <r>     7.6585     7.1682    95.1069 </r>
       <r>     7.7242     3.1221    95.3121 </r>
       <r>     7.7899     8.6282    95.8792 </r>
       <r>     7.8557    13.0369    96.7360 </r>
       <r>     7.9214    18.2434    97.9351 </r>
       <r>     7.9871    21.0930    99.3214 </r>
       <r>     8.0528    19.1409   100.5795 </r>
       <r>     8.1186    20.6452   101.9364 </r>
       <r>     8.1843    19.7565   103.2349 </r>
       <r>     8.2500    20.2772   104.5676 </r>
       <r>     8.3157    24.1817   106.1570 </r>
       <r>     8.3815    27.8154   107.9852 </r>
       <r>     8.4472    32.4289   110.1166 </r>
       <r>     8.5129    36.3657   112.5067 </r>
       <r>     8.5786    25.2213   114.1644 </r>
       <r>     8.6444    33.4691   116.3642 </r>
       <r>     8.7101    40.6477   119.0358 </r>
       <r>     8.7758    42.1525   121.8063 </r>
       <r>     8.8415    33.7975   124.0276 </r>
       <r>     8.9073    46.9864   127.1158 </r>
       <r>     8.9730    43.4744   129.9732 </r>
       <r>     9.0387    36.3891   132.3649 </r>
       <r>     9.1044    45.5477   135.3585 </r>
       <r>     9.1702    44.4441   138.2796 </r>
       <r>     9.2359    55.8714   141.9518 </r>
       <r>     9.3016    66.7600   146.3397 </r>
       <r>     9.3673    51.3848   149.7170 </r>
       <r>     9.4331    31.3338   151.7764 </r>
       <r>     9.4988    18.4098   152.9864 </r>
       <r>     9.5645    14.1877   153.9189 </r>
       <r>     9.6302    21.5797   155.3372 </r>
       <r>     9.6960    28.3332   157.1994 </r>
       <r>     9.7617    29.5715   159.1430 </r>
       <r>     9.8274    17.2219   160.2749 </r>
       <r>     9.8931    13.0622   161.1334 </r>
       <r>     9.9589    25.2575   162.7935 </r>
       <r>    10.0246    13.0640   163.6521 </r>
       <r>    10.0903    16.2398   164.7195 </r>
       <r>    10.1560    17.9167   165.8971 </r>
       <r>    10.2218    14.5309   166.8521 </r>
       <r>    10.2875    13.0298   167.7085 </r>
       <r>    10.3532    14.2575   168.6456 </r>
       <r>    10.4189    12.7727   169.4851 </r>
       <r>    10.4847     6.1839   169.8916 </r>
       <r>    10.5504    10.9116   170.6087 </r>
       <r>    10.6161    11.6488   171.3743 </r>
       <r>    10.6819     3.6871   171.6167 </r>
       <r>    10.7476     1.7535   171.7319 </r>
       <r>    10.8133     6.4908   172.1585 </r>
       <r>    10.8790     3.4627   172.3861 </r>
       <r>    10.9448     0.4126   172.4132 </r>
       <r>    11.0105     3.2704   172.6282 </r>
       <r>    11.0762     5.6372   172.9987 </r>
       <r>    11.1419     3.6824   173.2407 </r>
       <r>    11.2077     9.4692   173.8631 </r>
       <r>    11.2734     4.9644   174.1894 </r>
       <r>    11.3391     6.1227   174.5918 </r>
       <r>    11.4048     3.4108   174.8160 </r>
       <r>    11.4706     3.5849   175.0516 </r>
       <r>    11.5363     8.3559   175.6008 </r>
       <r>    11.6020     4.4692   175.8945 </r>
       <r>    11.6677     3.2261   176.1066 </r>
       <r>    11.7335     7.7198   176.6140 </r>
       <r>    11.7992     5.3613   176.9663 </r>
       <r>    11.8649     0.6498   177.0090 </r>
       <r>    11.9306     0.3513   177.0321 </r>
       <r>    11.9964     4.7486   177.3442 </r>
       <r>    12.0621    13.2221   178.2133 </r>
       <r>    12.1278     8.8913   178.7976 </r>
       <r>    12.1935     1.0577   178.8672 </r>
       <r>    12.2593     3.6259   179.1055 </r>
       <r>    12.3250     8.3244   179.6526 </r>
       <r>    12.3907     2.5580   179.8207 </r>
       <r>    12.4564     0.5937   179.8597 </r>
       <r>    12.5222     0.0855   179.8654 </r>
       <r>    12.5879     0.5074   179.8987 </r>
       <r>    12.6536     0.7192   179.9460 </r>
       <r>    12.7193     2.7864   180.1291 </r>
       <r>    12.7851     7.7245   180.6368 </r>
       <r>    12.8508     6.7364   181.0796 </r>
       <r>    12.9165     3.2482   181.2931 </r>
       <r>    12.9822     7.0269   181.7549 </r>
       <r>    13.0480     8.8914   182.3393 </r>
       <r>    13.1137     6.8444   182.7892 </r>
       <r>    13.1794     2.3488   182.9435 </r>
       <r>    13.2451     2.4334   183.1035 </r>
       <r>    13.3109     3.7339   183.3489 </r>
       <r>    13.3766     3.3241   183.5674 </r>
       <r>    13.4423     0.7562   183.6171 </r>
       <r>    13.5080     5.0366   183.9481 </r>
       <r>    13.5738     8.4820   184.5056 </r>
       <r>    13.6395     2.9010   184.6963 </r>
       <r>    13.7052     1.0252   184.7636 </r>
       <r>    13.7709     0.7593   184.8135 </r>
       <r>    13.8367     2.6257   184.9861 </r>
       <r>    13.9024     4.2481   185.2653 </r>
       <r>    13.9681     2.6490   185.4394 </r>
       <r>    14.0339     1.8766   185.5628 </r>
       <r>    14.0996     5.4364   185.9201 </r>
       <r>    14.1653     5.8987   186.3078 </r>
       <r>    14.2310     1.0728   186.3783 </r>
       <r>    14.2968     3.2864   186.5943 </r>
       <r>    14.3625     3.7414   186.8402 </r>
       <r>    14.4282     0.8113   186.8935 </r>
       <r>    14.4939     2.2279   187.0399 </r>
       <r>    14.5597     1.5619   187.1426 </r>
       <r>    14.6254     0.9924   187.2078 </r>
       <r>    14.6911     2.9024   187.3986 </r>
       <r>    14.7568     5.5485   187.7633 </r>
       <r>    14.8226     3.0393   187.9630 </r>
       <r>    14.8883     4.5314   188.2609 </r>
       <r>    14.9540     1.7439   188.3755 </r>
       <r>    15.0197     0.2301   188.3906 </r>
       <r>    15.0855     4.4143   188.6807 </r>
       <r>    15.1512     9.3491   189.2952 </r>
       <r>    15.2169     3.7958   189.5447 </r>
       <r>    15.2826     0.8505   189.6006 </r>
       <r>    15.3484     0.0227   189.6021 </r>
       <r>    15.4141     0.3709   189.6265 </r>
       <r>    15.4798     2.1199   189.7658 </r>
       <r>    15.5455     0.8665   189.8227 </r>
       <r>    15.6113     0.2613   189.8399 </r>
       <r>    15.6770     3.1455   190.0467 </r>
       <r>    15.7427     3.1373   190.2529 </r>
       <r>    15.8084     0.2756   190.2710 </r>
       <r>    15.8742     1.1014   190.3434 </r>
       <r>    15.9399     1.9877   190.4740 </r>
       <r>    16.0056     0.2565   190.4909 </r>
       <r>    16.0713     0.1802   190.5027 </r>
       <r>    16.1371     0.5432   190.5384 </r>
       <r>    16.2028     0.1203   190.5463 </r>
       <r>    16.2685     0.2701   190.5641 </r>
       <r>    16.3342     2.5837   190.7339 </r>
       <r>    16.4000     2.2422   190.8812 </r>
       <r>    16.4657     1.4889   190.9791 </r>
       <r>    16.5314     1.7212   191.0922 </r>
       <r>    16.5971     3.4286   191.3176 </r>
       <r>    16.6629     2.8911   191.5076 </r>
       <r>    16.7286     1.5014   191.6063 </r>
       <r>    16.7943     0.7022   191.6524 </r>
       <r>    16.8600     0.5342   191.6875 </r>
       <r>    16.9258     1.4543   191.7831 </r>
       <r>    16.9915     0.3371   191.8053 </r>
       <r>    17.0572     0.0044   191.8056 </r>
       <r>    17.1229     0.0000   191.8056 </r>
       <r>    17.1887     0.0000   191.8056 </r>
       <r>    17.2544     0.0000   191.8056 </r>
       <r>    17.3201     0.0000   191.8056 </r>
       <r>    17.3859     0.0000   191.8056 </r>
       <r>    17.4516     0.0000   191.8056 </r>
       <r>    17.5173     0.0000   191.8056 </r>
       <r>    17.5830     0.0000   191.8056 </r>
       <r>    17.6488     0.0051   191.8059 </r>
       <r>    17.7145     0.2437   191.8219 </r>
       <r>    17.7802     1.2750   191.9057 </r>
       <r>    17.8459     1.2855   191.9902 </r>
       <r>    17.9117     0.1480   191.9999 </r>
       <r>    17.9774     0.0011   192.0000 </r>
       <r>    18.0431     0.0000   192.0000 </r>
       <r>    18.1088     0.0000   192.0000 </r>
       <r>    18.1746     0.0000   192.0000 </r>
       <r>    18.2403     0.0000   192.0000 </r>
       <r>    18.3060     0.0000   192.0000 </r>
       <r>    18.3717     0.0000   192.0000 </r>
       <r>    18.4375     0.0000   192.0000 </r>
       <r>    18.5032     0.0000   192.0000 </r>
       <r>    18.5689     0.0000   192.0000 </r>
       <r>    18.6346     0.0000   192.0000 </r>
       <r>    18.7004     0.0000   192.0000 </r>
      </set>
     </set>
    </array>
   </total>
  </dos>
 </calculation>
 <structure name="finalpos" >
  <crystal>
   <varray name="basis" >
    <v>       5.67105810       0.00000000       0.00000000 </v>
    <v>       0.00000000       5.67105810       0.00000000 </v>
    <v>       0.00000000       0.00000000       5.67105810 </v>
   </varray>
   <i name="volume">    182.38633194 </i>
   <varray name="rec_basis" >
    <v>       0.17633394       0.00000000       0.00000000 </v>
    <v>       0.00000000       0.17633394       0.00000000 </v>
    <v>       0.00000000       0.00000000       0.17633394 </v>
   </varray>
  </crystal>
  <varray name="positions" >
   <v>       0.00176334       0.00000000       0.00000000 </v>
   <v>       0.50000000       0.00000000       0.00000000 </v>
   <v>       0.00000000       0.50000000       0.00000000 </v>
   <v>       0.50000000       0.50000000       0.00000000 </v>
   <v>       0.00000000       0.00000000       0.50000000 </v>
   <v>       0.50000000       0.00000000       0.50000000 </v>
   <v>       0.00000000       0.50000000       0.50000000 </v>
   <v>       0.50000000       0.50000000       0.50000000 </v>
   <v>       0.25000000       0.25000000       0.25000000 </v>
   <v>       0.75000000       0.25000000       0.25000000 </v>
   <v>       0.25000000       0.75000000       0.25000000 </v>
   <v>       0.75000000       0.75000000       0.25000000 </v>
   <v>       0.25000000       0.25000000       0.75000000 </v>
   <v>       0.75000000       0.25000000       0.75000000 </v>
   <v>       0.25000000       0.75000000       0.75000000 </v>
   <v>       0.75000000       0.75000000       0.75000000 </v>
  </varray>
 </structure>
</modeling>
