<?xml version="1.0" encoding="ISO-8859-1"?>
<modeling>
 <generator>
  <i name="program" type="string">vasp </i>
  <i name="version" type="string">6.3.0  </i>
  <i name="subversion" type="string">20Jan22 (build Feb 10 2022 15:15:41) complex                          parallel </i>
  <i name="platform" type="string">LinuxIFC </i>
  <i name="date" type="string">2023 10 05 </i>
  <i name="time" type="string">11:25:35 </i>
 </generator>
 <incar>
  <i name="EDIFF">      0.00010000</i>
  <i name="ENCUT">    360.00000000</i>
  <i type="int" name="ISMEAR">     0</i>
  <i name="SIGMA">      0.05000000</i>
 </incar>
 <primitive_cell>
  <structure name="primitive_cell" >
   <crystal>
    <varray name="basis" >
     <v>      12.99297215       0.00000000       0.00000000 </v>
     <v>       0.00000000      12.99297215       0.00000000 </v>
     <v>       0.00000000       0.00000000      12.99297215 </v>
    </varray>
    <i name="volume">   2193.43880629 </i>
    <varray name="rec_basis" >
     <v>       0.07696468       0.00000000       0.00000000 </v>
     <v>       0.00000000       0.07696468       0.00000000 </v>
     <v>       0.00000000       0.00000000       0.07696468 </v>
    </varray>
   </crystal>
   <varray name="positions" >
    <v>       0.00000000       0.00000000       0.00000000 </v>
    <v>       0.50000000       0.00000000       0.00000000 </v>
    <v>       0.00000000       0.50000000       0.00000000 </v>
    <v>       0.50000000       0.50000000       0.00000000 </v>
    <v>       0.00000000       0.00000000       0.50000000 </v>
    <v>       0.50000000       0.00000000       0.50000000 </v>
    <v>       0.00000000       0.50000000       0.50000000 </v>
    <v>       0.50000000       0.50000000       0.50000000 </v>
    <v>       0.00000000       0.25000000       0.25000000 </v>
    <v>       0.50000000       0.25000000       0.25000000 </v>
    <v>       0.00000000       0.75000000       0.25000000 </v>
    <v>       0.50000000       0.75000000       0.25000000 </v>
    <v>       0.00000000       0.25000000       0.75000000 </v>
    <v>       0.50000000       0.25000000       0.75000000 </v>
    <v>       0.00000000       0.75000000       0.75000000 </v>
    <v>       0.50000000       0.75000000       0.75000000 </v>
    <v>       0.25000000       0.00000000       0.25000000 </v>
    <v>       0.75000000       0.00000000       0.25000000 </v>
    <v>       0.25000000       0.50000000       0.25000000 </v>
    <v>       0.75000000       0.50000000       0.25000000 </v>
    <v>       0.25000000       0.00000000       0.75000000 </v>
    <v>       0.75000000       0.00000000       0.75000000 </v>
    <v>       0.25000000       0.50000000       0.75000000 </v>
    <v>       0.75000000       0.50000000       0.75000000 </v>
    <v>       0.25000000       0.25000000       0.00000000 </v>
    <v>       0.75000000       0.25000000       0.00000000 </v>
    <v>       0.25000000       0.75000000       0.00000000 </v>
    <v>       0.75000000       0.75000000       0.00000000 </v>
    <v>       0.25000000       0.25000000       0.50000000 </v>
    <v>       0.75000000       0.25000000       0.50000000 </v>
    <v>       0.25000000       0.75000000       0.50000000 </v>
    <v>       0.75000000       0.75000000       0.50000000 </v>
    <v>       0.12576965       0.12500000       0.12500000 </v>
    <v>       0.62500000       0.12500000       0.12500000 </v>
    <v>       0.12500000       0.62500000       0.12500000 </v>
    <v>       0.62500000       0.62500000       0.12500000 </v>
    <v>       0.12500000       0.12500000       0.62500000 </v>
    <v>       0.62500000       0.12500000       0.62500000 </v>
    <v>       0.12500000       0.62500000       0.62500000 </v>
    <v>       0.62500000       0.62500000       0.62500000 </v>
    <v>       0.12500000       0.37500000       0.37500000 </v>
    <v>       0.62500000       0.37500000       0.37500000 </v>
    <v>       0.12500000       0.87500000       0.37500000 </v>
    <v>       0.62500000       0.87500000       0.37500000 </v>
    <v>       0.12500000       0.37500000       0.87500000 </v>
    <v>       0.62500000       0.37500000       0.87500000 </v>
    <v>       0.12500000       0.87500000       0.87500000 </v>
    <v>       0.62500000       0.87500000       0.87500000 </v>
    <v>       0.37500000       0.12500000       0.37500000 </v>
    <v>       0.87500000       0.12500000       0.37500000 </v>
    <v>       0.37500000       0.62500000       0.37500000 </v>
    <v>       0.87500000       0.62500000       0.37500000 </v>
    <v>       0.37500000       0.12500000       0.87500000 </v>
    <v>       0.87500000       0.12500000       0.87500000 </v>
    <v>       0.37500000       0.62500000       0.87500000 </v>
    <v>       0.87500000       0.62500000       0.87500000 </v>
    <v>       0.37500000       0.37500000       0.12500000 </v>
    <v>       0.87500000       0.37500000       0.12500000 </v>
    <v>       0.37500000       0.87500000       0.12500000 </v>
    <v>       0.87500000       0.87500000       0.12500000 </v>
    <v>       0.37500000       0.37500000       0.62500000 </v>
    <v>       0.87500000       0.37500000       0.62500000 </v>
    <v>       0.37500000       0.87500000       0.62500000 </v>
    <v>       0.87500000       0.87500000       0.62500000 </v>
   </varray>
  </structure>
  <varray name="primitive_index" >
   <v type="int" >        1 </v>
   <v type="int" >        2 </v>
   <v type="int" >        3 </v>
   <v type="int" >        4 </v>
   <v type="int" >        5 </v>
   <v type="int" >        6 </v>
   <v type="int" >        7 </v>
   <v type="int" >        8 </v>
   <v type="int" >        9 </v>
   <v type="int" >       10 </v>
   <v type="int" >       11 </v>
   <v type="int" >       12 </v>
   <v type="int" >       13 </v>
   <v type="int" >       14 </v>
   <v type="int" >       15 </v>
   <v type="int" >       16 </v>
   <v type="int" >       17 </v>
   <v type="int" >       18 </v>
   <v type="int" >       19 </v>
   <v type="int" >       20 </v>
   <v type="int" >       21 </v>
   <v type="int" >       22 </v>
   <v type="int" >       23 </v>
   <v type="int" >       24 </v>
   <v type="int" >       25 </v>
   <v type="int" >       26 </v>
   <v type="int" >       27 </v>
   <v type="int" >       28 </v>
   <v type="int" >       29 </v>
   <v type="int" >       30 </v>
   <v type="int" >       31 </v>
   <v type="int" >       32 </v>
   <v type="int" >       33 </v>
   <v type="int" >       34 </v>
   <v type="int" >       35 </v>
   <v type="int" >       36 </v>
   <v type="int" >       37 </v>
   <v type="int" >       38 </v>
   <v type="int" >       39 </v>
   <v type="int" >       40 </v>
   <v type="int" >       41 </v>
   <v type="int" >       42 </v>
   <v type="int" >       43 </v>
   <v type="int" >       44 </v>
   <v type="int" >       45 </v>
   <v type="int" >       46 </v>
   <v type="int" >       47 </v>
   <v type="int" >       48 </v>
   <v type="int" >       49 </v>
   <v type="int" >       50 </v>
   <v type="int" >       51 </v>
   <v type="int" >       52 </v>
   <v type="int" >       53 </v>
   <v type="int" >       54 </v>
   <v type="int" >       55 </v>
   <v type="int" >       56 </v>
   <v type="int" >       57 </v>
   <v type="int" >       58 </v>
   <v type="int" >       59 </v>
   <v type="int" >       60 </v>
   <v type="int" >       61 </v>
   <v type="int" >       62 </v>
   <v type="int" >       63 </v>
   <v type="int" >       64 </v>
  </varray>
 </primitive_cell>
 <kpoints>
  <generation param="Gamma">
   <v type="int" name="divisions">       3        3        3 </v>
   <v name="usershift">      0.00000000       0.00000000       0.00000000 </v>
   <v name="genvec1">      0.33333333       0.00000000       0.00000000 </v>
   <v name="genvec2">      0.00000000       0.33333333       0.00000000 </v>
   <v name="genvec3">      0.00000000       0.00000000       0.33333333 </v>
   <v name="shift">      0.00000000       0.00000000       0.00000000 </v>
  </generation>
  <varray name="kpointlist" >
   <v>       0.00000000       0.00000000       0.00000000 </v>
   <v>       0.33333333       0.00000000       0.00000000 </v>
   <v>       0.00000000       0.33333333       0.00000000 </v>
   <v>       0.33333333       0.33333333       0.00000000 </v>
   <v>       0.00000000       0.33333333       0.33333333 </v>
   <v>       0.00000000      -0.33333333       0.33333333 </v>
   <v>       0.33333333       0.33333333       0.33333333 </v>
   <v>      -0.33333333      -0.33333333       0.33333333 </v>
  </varray>
  <varray name="weights" >
   <v>       0.03703704 </v>
   <v>       0.07407407 </v>
   <v>       0.14814815 </v>
   <v>       0.29629630 </v>
   <v>       0.07407407 </v>
   <v>       0.07407407 </v>
   <v>       0.14814815 </v>
   <v>       0.14814815 </v>
  </varray>
 </kpoints>
 <parameters>
  <separator name="general" >
   <i type="string" name="SYSTEM">unknown system</i>
   <i type="logical" name="LCOMPAT"> F  </i>
  </separator>
  <separator name="electronic" >
   <i type="string" name="PREC">normal</i>
   <i name="ENMAX">    360.00000000</i>
   <i name="ENAUG">    456.10600000</i>
   <i name="EDIFF">      0.00010000</i>
   <i type="int" name="IALGO">    38</i>
   <i type="int" name="IWAVPR">    10</i>
   <i type="int" name="NBANDS">   384</i>
   <i type="int" name="NBANDSLOW">    -1</i>
   <i type="int" name="NBANDSHIGH">    -1</i>
   <i name="NELECT">    576.00000000</i>
   <i type="int" name="TURBO">     0</i>
   <i type="int" name="IRESTART">     0</i>
   <i type="int" name="NREBOOT">     0</i>
   <i type="int" name="NMIN">     0</i>
   <i name="EREF">      0.00000000</i>
   <separator name="electronic smearing" >
    <i type="int" name="ISMEAR">     0</i>
    <i name="SIGMA">      0.05000000</i>
    <i name="KSPACING">      0.50000000</i>
    <i type="logical" name="KGAMMA"> T  </i>
    <i type="logical" name="KBLOWUP"> T  </i>
   </separator>
   <separator name="electronic projectors" >
    <i type="logical" name="LREAL"> F  </i>
    <v name="ROPT">      0.00000000      0.00000000</v>
    <i type="int" name="LMAXPAW">  -100</i>
    <i type="int" name="LMAXMIX">     2</i>
    <i type="logical" name="NLSPLINE"> F  </i>
   </separator>
   <separator name="electronic startup" >
    <i type="int" name="ISTART">     0</i>
    <i type="int" name="ICHARG">     2</i>
    <i type="int" name="INIWAV">     1</i>
   </separator>
   <separator name="electronic spin" >
    <i type="int" name="ISPIN">     1</i>
    <i type="logical" name="LNONCOLLINEAR"> F  </i>
    <v name="MAGMOM">      1.00000000      1.00000000      1.00000000      1.00000000      1.00000000      1.00000000      1.00000000      1.00000000      1.00000000      1.00000000      1.00000000      1.00000000      1.00000000      1.00000000      1.00000000      1.00000000      1.00000000      1.00000000      1.00000000      1.00000000
      1.00000000      1.00000000      1.00000000      1.00000000      1.00000000      1.00000000      1.00000000      1.00000000      1.00000000      1.00000000      1.00000000      1.00000000      1.00000000      1.00000000      1.00000000      1.00000000      1.00000000      1.00000000      1.00000000      1.00000000
      1.00000000      1.00000000      1.00000000      1.00000000      1.00000000      1.00000000      1.00000000      1.00000000      1.00000000      1.00000000      1.00000000      1.00000000      1.00000000      1.00000000      1.00000000      1.00000000      1.00000000      1.00000000      1.00000000      1.00000000
      1.00000000      1.00000000      1.00000000      1.00000000</v>
    <i name="NUPDOWN">     -1.00000000</i>
    <i type="logical" name="LSORBIT"> F  </i>
    <v name="SAXIS">      0.00000000      0.00000000      1.00000000</v>
    <i type="logical" name="LSPIRAL"> F  </i>
    <v name="QSPIRAL">      0.00000000      0.00000000      0.00000000</v>
    <i type="logical" name="LZEROZ"> F  </i>
   </separator>
   <separator name="electronic exchange-correlation" >
    <i type="logical" name="LASPH"> F  </i>
    <i type="logical" name="LMETAGGA"> F  </i>
   </separator>
   <separator name="electronic convergence" >
    <i type="int" name="NELM">    60</i>
    <i type="int" name="NELMDL">    -5</i>
    <i type="int" name="NELMIN">     2</i>
    <i name="ENINI">    360.00000000</i>
    <separator name="electronic convergence detail" >
     <i type="logical" name="LDIAG"> T  </i>
     <i type="logical" name="LSUBROT"> F  </i>
     <i name="WEIMIN">      0.00000000</i>
     <i name="EBREAK">      0.00000007</i>
     <i name="DEPER">      0.30000000</i>
     <i type="int" name="NRMM">     4</i>
     <i name="TIME">      0.40000000</i>
    </separator>
   </separator>
   <separator name="electronic mixer" >
    <i name="AMIX">      0.40000000</i>
    <i name="BMIX">      1.00000000</i>
    <i name="AMIN">      0.10000000</i>
    <i name="AMIX_MAG">      1.60000000</i>
    <i name="BMIX_MAG">      1.00000000</i>
    <separator name="electronic mixer details" >
     <i type="int" name="IMIX">     4</i>
     <i type="logical" name="MIXFIRST"> F  </i>
     <i type="int" name="MAXMIX">   -45</i>
     <i name="WC">    100.00000000</i>
     <i type="int" name="INIMIX">     1</i>
     <i type="int" name="MIXPRE">     1</i>
     <i type="int" name="MREMOVE">     5</i>
    </separator>
   </separator>
   <separator name="electronic dipolcorrection" >
    <i type="logical" name="LDIPOL"> F  </i>
    <i type="logical" name="LMONO"> F  </i>
    <i type="int" name="IDIPOL">     0</i>
    <i name="EPSILON">      1.00000000</i>
    <v name="DIPOL">   -100.00000000   -100.00000000   -100.00000000</v>
    <i name="EFIELD">      0.00000000</i>
   </separator>
  </separator>
  <separator name="grids" >
   <i type="int" name="NGX">    60</i>
   <i type="int" name="NGY">    60</i>
   <i type="int" name="NGZ">    60</i>
   <i type="int" name="NGXF">   120</i>
   <i type="int" name="NGYF">   120</i>
   <i type="int" name="NGZF">   120</i>
   <i type="logical" name="ADDGRID"> F  </i>
  </separator>
  <separator name="ionic" >
   <i type="int" name="NSW">     0</i>
   <i type="int" name="IBRION">    -1</i>
   <i type="int" name="MDALGO">     0</i>
   <i type="int" name="ISIF">     2</i>
   <i name="PSTRESS">      0.00000000</i>
   <i name="EDIFFG">      0.00100000</i>
   <i type="int" name="NFREE">     0</i>
   <i name="POTIM">      0.50000000</i>
   <i name="SMASS">     -3.00000000</i>
   <i name="SCALEE">      1.00000000</i>
  </separator>
  <separator name="ionic md" >
   <i name="TEBEG">      0.00010000</i>
   <i name="TEEND">      0.00010000</i>
   <i type="int" name="NBLOCK">     1</i>
   <i type="int" name="KBLOCK">     1</i>
   <i type="int" name="NPACO">   256</i>
   <i name="APACO">     10.00000000</i>
  </separator>
  <separator name="symmetry" >
   <i type="int" name="ISYM">     2</i>
   <i name="SYMPREC">      0.00001000</i>
  </separator>
  <separator name="dos" >
   <i type="int" name="LORBIT">     0</i>
   <v name="RWIGS">     -1.00000000     -1.00000000</v>
   <i type="int" name="NEDOS">   301</i>
   <i name="EMIN">     10.00000000</i>
   <i name="EMAX">    -10.00000000</i>
   <i name="EFERMI">      0.00000000</i>
  </separator>
  <separator name="writing" >
   <i type="int" name="NWRITE">     2</i>
   <i type="logical" name="LWAVE"> T  </i>
   <i type="logical" name="LDOWNSAMPLE"> F  </i>
   <i type="logical" name="LCHARG"> T  </i>
   <i type="logical" name="LPARD"> F  </i>
   <i type="logical" name="LVTOT"> F  </i>
   <i type="logical" name="LVHAR"> F  </i>
   <i type="logical" name="LELF"> F  </i>
   <i type="logical" name="LOPTICS"> F  </i>
   <v name="STM">      0.00000000      0.00000000      0.00000000      0.00000000      0.00000000      0.00000000      0.00000000</v>
  </separator>
  <separator name="performance" >
   <i type="int" name="NPAR">    48</i>
   <i type="int" name="NSIM">     4</i>
   <i type="int" name="NBLK">    -1</i>
   <i type="logical" name="LPLANE"> T  </i>
   <i type="logical" name="LSCALAPACK"> T  </i>
   <i type="logical" name="LSCAAWARE"> F  </i>
   <i type="logical" name="LSCALU"> F  </i>
   <i type="logical" name="LASYNC"> F  </i>
   <i type="logical" name="LORBITALREAL"> F  </i>
  </separator>
  <separator name="miscellaneous" >
   <i type="int" name="IDIOT">     3</i>
   <i type="int" name="PHON_NSTRUCT">    -1</i>
   <i type="logical" name="LMUSIC"> F  </i>
   <v name="POMASS">    112.41100000    127.60000000</v>
   <v name="DARWINR">      0.00000000      0.00000000</v>
   <v name="DARWINV">      1.00000000      1.00000000</v>
   <i type="logical" name="LCORR"> T  </i>
  </separator>
  <i type="logical" name="GGA_COMPAT"> T  </i>
  <i type="logical" name="LBERRY"> F  </i>
  <i type="int" name="ICORELEVEL">     0</i>
  <i type="logical" name="LDAU"> F  </i>
  <i type="int" name="I_CONSTRAINED_M">     0</i>
  <separator name="electronic exchange-correlation" >
   <i type="string" name="GGA">--</i>
   <i type="int" name="VOSKOWN">     0</i>
   <i type="logical" name="LHFCALC"> F  </i>
   <i type="string" name="PRECFOCK"></i>
   <i type="logical" name="LSYMGRAD"> F  </i>
   <i type="logical" name="LHFONE"> F  </i>
   <i type="logical" name="LRHFCALC"> F  </i>
   <i type="logical" name="LTHOMAS"> F  </i>
   <i type="logical" name="LMODELHF"> F  </i>
   <i type="logical" name="LFOCKACE"> F  </i>
   <i name="ENCUT4O">     -1.00000000</i>
   <i type="int" name="EXXOEP">     0</i>
   <i type="int" name="FOURORBIT">     0</i>
   <i name="AEXX">      0.00000000</i>
   <i name="HFALPHA">      0.00000000</i>
   <i name="MCALPHA">      0.00000000</i>
   <i name="ALDAX">      1.00000000</i>
   <i name="AGGAX">      1.00000000</i>
   <i name="ALDAC">      1.00000000</i>
   <i name="AGGAC">      1.00000000</i>
   <i type="int" name="NKREDX">     1</i>
   <i type="int" name="NKREDY">     1</i>
   <i type="int" name="NKREDZ">     1</i>
   <i type="logical" name="SHIFTRED"> F  </i>
   <i type="logical" name="ODDONLY"> F  </i>
   <i type="logical" name="EVENONLY"> F  </i>
   <i type="int" name="LMAXFOCK">     0</i>
   <i type="int" name="NMAXFOCKAE">     0</i>
   <i type="logical" name="LFOCKAEDFT"> F  </i>
   <i name="HFSCREEN">      0.00000000</i>
   <i name="HFSCREENC">      0.00000000</i>
   <i type="int" name="NBANDSGWLOW">     0</i>
  </separator>
  <separator name="vdW DFT" >
   <i type="logical" name="LUSE_VDW"> F  </i>
   <i name="Zab_VDW">     -0.84910000</i>
   <i name="PARAM1">      0.12340000</i>
   <i name="PARAM2">      1.00000000</i>
   <i name="PARAM3">      0.00000000</i>
  </separator>
  <separator name="model GW" >
   <i type="int" name="MODEL_GW">     0</i>
   <i name="MODEL_EPS0">     20.56348881</i>
   <i name="MODEL_ALPHA">      1.00000000</i>
  </separator>
  <separator name="linear response parameters" >
   <i type="logical" name="LEPSILON"> F  </i>
   <i type="logical" name="LRPA"> F  </i>
   <i type="logical" name="LNABLA"> F  </i>
   <i type="logical" name="LVEL"> F  </i>
   <i name="CSHIFT">      0.10000000</i>
   <i name="OMEGAMAX">     -1.00000000</i>
   <i name="DEG_THRESHOLD">      0.00200000</i>
   <i name="RTIME">     -0.10000000</i>
   <i name="WPLASMAI">      0.00000000</i>
   <v name="DFIELD">      0.00000000      0.00000000      0.00000000</v>
   <v name="WPLASMA">      0.00000000      0.00000000      0.00000000      0.00000000      0.00000000      0.00000000      0.00000000      0.00000000      0.00000000</v>
  </separator>
  <separator name="orbital magnetization" >
   <i type="logical" name="NUCIND"> F  </i>
   <v name="MAGPOS">      0.00000000      0.00000000      0.00000000</v>
   <i type="logical" name="LNICSALL"> T  </i>
   <i type="logical" name="ORBITALMAG"> F  </i>
   <i type="logical" name="LMAGBLOCH"> F  </i>
   <i type="logical" name="LCHIMAG"> F  </i>
   <i type="logical" name="LGAUGE"> T  </i>
   <i type="int" name="MAGATOM">     0</i>
   <v name="MAGDIPOL">      0.00000000      0.00000000      0.00000000</v>
   <v name="AVECCONST">      0.00000000      0.00000000      0.00000000</v>
  </separator>
  <separator name="response functions" >
   <i type="logical" name="LFINITE_TEMPERATURE"> F  </i>
   <i type="logical" name="LADDER"> F  </i>
   <i type="logical" name="LRPAFORCE"> F  </i>
   <i type="logical" name="LFXC"> F  </i>
   <i type="logical" name="LHARTREE"> T  </i>
   <i type="int" name="IBSE">     0</i>
   <v type="int" name="KPOINT">    -1     0     0     0</v>
   <i type="logical" name="LTCTC"> F  </i>
   <i type="logical" name="LTCTE"> F  </i>
   <i type="logical" name="LTETE"> F  </i>
   <i type="logical" name="LTRIPLET"> F  </i>
   <i type="logical" name="LFXCEPS"> F  </i>
   <i type="logical" name="LFXHEG"> F  </i>
   <i type="int" name="NATURALO">     2</i>
   <i type="logical" name="LHOLEGF"> F  </i>
   <i type="logical" name="L2ORDER"> F  </i>
   <i type="logical" name="LDMP1"> F  </i>
   <i type="logical" name="LMP2LT"> F  </i>
   <i type="logical" name="LSMP2LT"> F  </i>
   <i type="logical" name="LGWLF"> F  </i>
   <i name="ENCUTGW">     -2.00000000</i>
   <i name="ENCUTGWSOFT">     -2.00000000</i>
   <i name="ENCUTLF">     -1.00000000</i>
   <i type="logical" name="LESF_SPLINES"> F  </i>
   <i type="int" name="LMAXMP2">    -1</i>
   <i name="SCISSOR">      0.00000000</i>
   <i type="int" name="NOMEGA">     0</i>
   <i type="int" name="NOMEGAR">     0</i>
   <i type="int" name="NBANDSGW">    -1</i>
   <i type="int" name="NBANDSO">    -1</i>
   <i type="int" name="NBANDSV">    -1</i>
   <i type="int" name="NELMGW">     1</i>
   <i type="int" name="NELMHF">     1</i>
   <i type="int" name="DIM">     3</i>
   <i type="int" name="IESPILON">     4</i>
   <i type="int" name="ANTIRES">     0</i>
   <i name="OMEGAMAX">    -30.00000000</i>
   <i name="OMEGAMIN">    -30.00000000</i>
   <i name="OMEGATL">   -200.00000000</i>
   <i type="int" name="OMEGAGRID">     0</i>
   <i name="CSHIFT">     -0.10000000</i>
   <i type="logical" name="LSELFENERGY"> F  </i>
   <i type="logical" name="LSPECTRAL"> F  </i>
   <i type="logical" name="LSPECTRALGW"> F  </i>
   <i type="logical" name="LSINGLES"> F  </i>
   <i type="logical" name="LFERMIGW"> F  </i>
   <i type="logical" name="ODDONLYGW"> F  </i>
   <i type="logical" name="EVENONLYGW"> F  </i>
   <i type="int" name="NKREDLFX">     1</i>
   <i type="int" name="NKREDLFY">     1</i>
   <i type="int" name="NKREDLFZ">     1</i>
   <i type="int" name="MAXMEM">  2800</i>
   <i type="int" name="TELESCOPE">     0</i>
   <i type="int" name="NTAUPAR">    -1</i>
   <i type="int" name="NOMEGAPAR">    -1</i>
   <i name="DAMP_NEWTON">      0.80000001</i>
   <i name="LAMBDA">      1.00000000</i>
  </separator>
  <separator name="External order field" >
   <i name="OFIELD_KAPPA">      0.00000000</i>
   <v name="OFIELD_K">      0.00000000      0.00000000      0.00000000</v>
   <i name="OFIELD_Q6_NEAR">      0.00000000</i>
   <i name="OFIELD_Q6_FAR">      0.00000000</i>
   <i name="OFIELD_A">      0.00000000</i>
  </separator>
  <separator name="optional k-points parameters" >
   <i type="int" name="KPOINTS_OPT_MODE">     1</i>
   <i type="logical" name="LKPOINTS_OPT"> F  </i>
  </separator>
 </parameters>
 <atominfo>
  <atoms>      64 </atoms>
  <types>       2 </types>
  <array name="atoms" >
   <dimension dim="1">ion</dimension>
   <field type="string">element</field>
   <field type="int">atomtype</field>
   <set>
    <rc><c>Cd</c><c>   1</c></rc>
    <rc><c>Cd</c><c>   1</c></rc>
    <rc><c>Cd</c><c>   1</c></rc>
    <rc><c>Cd</c><c>   1</c></rc>
    <rc><c>Cd</c><c>   1</c></rc>
    <rc><c>Cd</c><c>   1</c></rc>
    <rc><c>Cd</c><c>   1</c></rc>
    <rc><c>Cd</c><c>   1</c></rc>
    <rc><c>Cd</c><c>   1</c></rc>
    <rc><c>Cd</c><c>   1</c></rc>
    <rc><c>Cd</c><c>   1</c></rc>
    <rc><c>Cd</c><c>   1</c></rc>
    <rc><c>Cd</c><c>   1</c></rc>
    <rc><c>Cd</c><c>   1</c></rc>
    <rc><c>Cd</c><c>   1</c></rc>
    <rc><c>Cd</c><c>   1</c></rc>
    <rc><c>Cd</c><c>   1</c></rc>
    <rc><c>Cd</c><c>   1</c></rc>
    <rc><c>Cd</c><c>   1</c></rc>
    <rc><c>Cd</c><c>   1</c></rc>
    <rc><c>Cd</c><c>   1</c></rc>
    <rc><c>Cd</c><c>   1</c></rc>
    <rc><c>Cd</c><c>   1</c></rc>
    <rc><c>Cd</c><c>   1</c></rc>
    <rc><c>Cd</c><c>   1</c></rc>
    <rc><c>Cd</c><c>   1</c></rc>
    <rc><c>Cd</c><c>   1</c></rc>
    <rc><c>Cd</c><c>   1</c></rc>
    <rc><c>Cd</c><c>   1</c></rc>
    <rc><c>Cd</c><c>   1</c></rc>
    <rc><c>Cd</c><c>   1</c></rc>
    <rc><c>Cd</c><c>   1</c></rc>
    <rc><c>Te</c><c>   2</c></rc>
    <rc><c>Te</c><c>   2</c></rc>
    <rc><c>Te</c><c>   2</c></rc>
    <rc><c>Te</c><c>   2</c></rc>
    <rc><c>Te</c><c>   2</c></rc>
    <rc><c>Te</c><c>   2</c></rc>
    <rc><c>Te</c><c>   2</c></rc>
    <rc><c>Te</c><c>   2</c></rc>
    <rc><c>Te</c><c>   2</c></rc>
    <rc><c>Te</c><c>   2</c></rc>
    <rc><c>Te</c><c>   2</c></rc>
    <rc><c>Te</c><c>   2</c></rc>
    <rc><c>Te</c><c>   2</c></rc>
    <rc><c>Te</c><c>   2</c></rc>
    <rc><c>Te</c><c>   2</c></rc>
    <rc><c>Te</c><c>   2</c></rc>
    <rc><c>Te</c><c>   2</c></rc>
    <rc><c>Te</c><c>   2</c></rc>
    <rc><c>Te</c><c>   2</c></rc>
    <rc><c>Te</c><c>   2</c></rc>
    <rc><c>Te</c><c>   2</c></rc>
    <rc><c>Te</c><c>   2</c></rc>
    <rc><c>Te</c><c>   2</c></rc>
    <rc><c>Te</c><c>   2</c></rc>
    <rc><c>Te</c><c>   2</c></rc>
    <rc><c>Te</c><c>   2</c></rc>
    <rc><c>Te</c><c>   2</c></rc>
    <rc><c>Te</c><c>   2</c></rc>
    <rc><c>Te</c><c>   2</c></rc>
    <rc><c>Te</c><c>   2</c></rc>
    <rc><c>Te</c><c>   2</c></rc>
    <rc><c>Te</c><c>   2</c></rc>
   </set>
  </array>
  <array name="atomtypes" >
   <dimension dim="1">type</dimension>
   <field type="int">atomspertype</field>
   <field type="string">element</field>
   <field>mass</field>
   <field>valence</field>
   <field type="string">pseudopotential</field>
   <set>
    <rc><c>  32</c><c>Cd</c><c>    112.41100000</c><c>     12.00000000</c><c>  PAW_PBE Cd 06Sep2000                  </c></rc>
    <rc><c>  32</c><c>Te</c><c>    127.60000000</c><c>      6.00000000</c><c>  PAW_PBE Te 08Apr2002                  </c></rc>
   </set>
  </array>
 </atominfo>
 <structure name="initialpos" >
  <crystal>
   <varray name="basis" >
    <v>      12.99297215       0.00000000       0.00000000 </v>
    <v>       0.00000000      12.99297215       0.00000000 </v>
    <v>       0.00000000       0.00000000      12.99297215 </v>
   </varray>
   <i name="volume">   2193.43880629 </i>
   <varray name="rec_basis" >
    <v>       0.07696468       0.00000000       0.00000000 </v>
    <v>       0.00000000       0.07696468       0.00000000 </v>
    <v>       0.00000000       0.00000000       0.07696468 </v>
   </varray>
  </crystal>
  <varray name="positions" >
   <v>       0.00000000       0.00000000       0.00000000 </v>
   <v>       0.50000000       0.00000000       0.00000000 </v>
   <v>       0.00000000       0.50000000       0.00000000 </v>
   <v>       0.50000000       0.50000000       0.00000000 </v>
   <v>       0.00000000       0.00000000       0.50000000 </v>
   <v>       0.50000000       0.00000000       0.50000000 </v>
   <v>       0.00000000       0.50000000       0.50000000 </v>
   <v>       0.50000000       0.50000000       0.50000000 </v>
   <v>       0.00000000       0.25000000       0.25000000 </v>
   <v>       0.50000000       0.25000000       0.25000000 </v>
   <v>       0.00000000       0.75000000       0.25000000 </v>
   <v>       0.50000000       0.75000000       0.25000000 </v>
   <v>       0.00000000       0.25000000       0.75000000 </v>
   <v>       0.50000000       0.25000000       0.75000000 </v>
   <v>       0.00000000       0.75000000       0.75000000 </v>
   <v>       0.50000000       0.75000000       0.75000000 </v>
   <v>       0.25000000       0.00000000       0.25000000 </v>
   <v>       0.75000000       0.00000000       0.25000000 </v>
   <v>       0.25000000       0.50000000       0.25000000 </v>
   <v>       0.75000000       0.50000000       0.25000000 </v>
   <v>       0.25000000       0.00000000       0.75000000 </v>
   <v>       0.75000000       0.00000000       0.75000000 </v>
   <v>       0.25000000       0.50000000       0.75000000 </v>
   <v>       0.75000000       0.50000000       0.75000000 </v>
   <v>       0.25000000       0.25000000       0.00000000 </v>
   <v>       0.75000000       0.25000000       0.00000000 </v>
   <v>       0.25000000       0.75000000       0.00000000 </v>
   <v>       0.75000000       0.75000000       0.00000000 </v>
   <v>       0.25000000       0.25000000       0.50000000 </v>
   <v>       0.75000000       0.25000000       0.50000000 </v>
   <v>       0.25000000       0.75000000       0.50000000 </v>
   <v>       0.75000000       0.75000000       0.50000000 </v>
   <v>       0.12576965       0.12500000       0.12500000 </v>
   <v>       0.62500000       0.12500000       0.12500000 </v>
   <v>       0.12500000       0.62500000       0.12500000 </v>
   <v>       0.62500000       0.62500000       0.12500000 </v>
   <v>       0.12500000       0.12500000       0.62500000 </v>
   <v>       0.62500000       0.12500000       0.62500000 </v>
   <v>       0.12500000       0.62500000       0.62500000 </v>
   <v>       0.62500000       0.62500000       0.62500000 </v>
   <v>       0.12500000       0.37500000       0.37500000 </v>
   <v>       0.62500000       0.37500000       0.37500000 </v>
   <v>       0.12500000       0.87500000       0.37500000 </v>
   <v>       0.62500000       0.87500000       0.37500000 </v>
   <v>       0.12500000       0.37500000       0.87500000 </v>
   <v>       0.62500000       0.37500000       0.87500000 </v>
   <v>       0.12500000       0.87500000       0.87500000 </v>
   <v>       0.62500000       0.87500000       0.87500000 </v>
   <v>       0.37500000       0.12500000       0.37500000 </v>
   <v>       0.87500000       0.12500000       0.37500000 </v>
   <v>       0.37500000       0.62500000       0.37500000 </v>
   <v>       0.87500000       0.62500000       0.37500000 </v>
   <v>       0.37500000       0.12500000       0.87500000 </v>
   <v>       0.87500000       0.12500000       0.87500000 </v>
   <v>       0.37500000       0.62500000       0.87500000 </v>
   <v>       0.87500000       0.62500000       0.87500000 </v>
   <v>       0.37500000       0.37500000       0.12500000 </v>
   <v>       0.87500000       0.37500000       0.12500000 </v>
   <v>       0.37500000       0.87500000       0.12500000 </v>
   <v>       0.87500000       0.87500000       0.12500000 </v>
   <v>       0.37500000       0.37500000       0.62500000 </v>
   <v>       0.87500000       0.37500000       0.62500000 </v>
   <v>       0.37500000       0.87500000       0.62500000 </v>
   <v>       0.87500000       0.87500000       0.62500000 </v>
  </varray>
 </structure>
 <calculation>
  <scstep>
   <time name="dav">   30.36   30.54</time>
   <time name="total">   30.39   30.57</time>
   <energy>
    <i name="alphaZ">   1595.31164772 </i>
    <i name="ewald"> -33363.65388939 </i>
    <i name="hartreedc"> -16362.96158773 </i>
    <i name="XCdc">   -724.75334951 </i>
    <i name="pawpsdc">  44941.76741987 </i>
    <i name="pawaedc"> -42629.27134123 </i>
    <i name="eentropy">     -0.03619414 </i>
    <i name="bandstr">   1060.61808641 </i>
    <i name="atom">  48525.04422734 </i>
    <i name="e_fr_energy">   3042.06501933 </i>
    <i name="e_wo_entrp">   3042.10121347 </i>
    <i name="e_0_energy">   3042.08311640 </i>
   </energy>
  </scstep>
  <scstep>
   <time name="dav">   33.76   33.99</time>
   <time name="total">   33.76   33.99</time>
   <energy>
    <i name="e_fr_energy">      5.55800430 </i>
    <i name="e_wo_entrp">      5.55800430 </i>
    <i name="e_0_energy">      5.55800430 </i>
   </energy>
  </scstep>
  <scstep>
   <time name="dav">   35.11   35.36</time>
   <time name="total">   35.11   35.36</time>
   <energy>
    <i name="e_fr_energy">   -157.77227411 </i>
    <i name="e_wo_entrp">   -157.77227411 </i>
    <i name="e_0_energy">   -157.77227411 </i>
   </energy>
  </scstep>
  <scstep>
   <time name="dav">   35.21   35.48</time>
   <time name="total">   35.21   35.48</time>
   <energy>
    <i name="e_fr_energy">   -160.32531951 </i>
    <i name="e_wo_entrp">   -160.32531951 </i>
    <i name="e_0_energy">   -160.32531951 </i>
   </energy>
  </scstep>
  <scstep>
   <time name="dav">   34.66   34.90</time>
   <time name="total">   34.84   35.09</time>
   <energy>
    <i name="e_fr_energy">   -160.35887989 </i>
    <i name="e_wo_entrp">   -160.35887989 </i>
    <i name="e_0_energy">   -160.35887989 </i>
   </energy>
  </scstep>
  <scstep>
   <time name="dav">   33.63   33.86</time>
   <time name="total">   33.84   34.12</time>
   <energy>
    <i name="e_fr_energy">   -153.38684365 </i>
    <i name="e_wo_entrp">   -153.38684365 </i>
    <i name="e_0_energy">   -153.38684365 </i>
   </energy>
  </scstep>
  <scstep>
   <time name="dav">   33.20   33.43</time>
   <time name="total">   33.41   33.67</time>
   <energy>
    <i name="e_fr_energy">   -153.01819323 </i>
    <i name="e_wo_entrp">   -153.01819323 </i>
    <i name="e_0_energy">   -153.01819323 </i>
   </energy>
  </scstep>
  <scstep>
   <time name="dav">   33.32   33.54</time>
   <time name="total">   33.53   33.77</time>
   <energy>
    <i name="e_fr_energy">   -152.96235720 </i>
    <i name="e_wo_entrp">   -152.96235720 </i>
    <i name="e_0_energy">   -152.96235720 </i>
   </energy>
  </scstep>
  <scstep>
   <time name="dav">   33.35   33.57</time>
   <time name="total">   33.56   33.82</time>
   <energy>
    <i name="e_fr_energy">   -152.96467900 </i>
    <i name="e_wo_entrp">   -152.96467900 </i>
    <i name="e_0_energy">   -152.96467900 </i>
   </energy>
  </scstep>
  <scstep>
   <time name="dav">   34.47   34.71</time>
   <time name="total">   34.68   34.94</time>
   <energy>
    <i name="e_fr_energy">   -152.96049389 </i>
    <i name="e_wo_entrp">   -152.96049389 </i>
    <i name="e_0_energy">   -152.96049389 </i>
   </energy>
  </scstep>
  <scstep>
   <time name="dav">   33.67   33.89</time>
   <time name="total">   33.88   34.14</time>
   <energy>
    <i name="e_fr_energy">   -152.96057992 </i>
    <i name="e_wo_entrp">   -152.96057992 </i>
    <i name="e_0_energy">   -152.96057992 </i>
   </energy>
  </scstep>
  <scstep>
   <time name="dav">   30.10   30.30</time>
   <time name="total">   30.31   30.53</time>
   <energy>
    <i name="e_fr_energy">   -152.96092372 </i>
    <i name="e_wo_entrp">   -152.96092372 </i>
    <i name="e_0_energy">   -152.96092372 </i>
   </energy>
  </scstep>
  <scstep>
   <time name="dav">   27.73   27.92</time>
   <time name="total">   27.94   28.16</time>
   <energy>
    <i name="e_fr_energy">   -152.96106853 </i>
    <i name="e_wo_entrp">   -152.96106853 </i>
    <i name="e_0_energy">   -152.96106853 </i>
   </energy>
  </scstep>
  <scstep>
   <time name="dav">   24.86   25.03</time>
   <time name="total">   24.91   25.08</time>
   <energy>
    <i name="alphaZ">   1595.31164772 </i>
    <i name="ewald"> -33363.65388939 </i>
    <i name="hartreedc"> -16155.50337475 </i>
    <i name="XCdc">   -722.62166692 </i>
    <i name="pawpsdc">  55740.30992852 </i>
    <i name="pawaedc"> -53418.79232481 </i>
    <i name="eentropy">     -0.00000000 </i>
    <i name="bandstr">  -2353.05562949 </i>
    <i name="atom">  48525.04422734 </i>
    <i name="e_fr_energy">   -152.96108177 </i>
    <i name="e_wo_entrp">   -152.96108177 </i>
    <i name="e_0_energy">   -152.96108177 </i>
   </energy>
  </scstep>
  <structure>
   <crystal>
    <varray name="basis" >
     <v>      12.99297215       0.00000000       0.00000000 </v>
     <v>       0.00000000      12.99297215       0.00000000 </v>
     <v>       0.00000000       0.00000000      12.99297215 </v>
    </varray>
    <i name="volume">   2193.43880629 </i>
    <varray name="rec_basis" >
     <v>       0.07696468       0.00000000       0.00000000 </v>
     <v>       0.00000000       0.07696468       0.00000000 </v>
     <v>       0.00000000       0.00000000       0.07696468 </v>
    </varray>
   </crystal>
   <varray name="positions" >
    <v>       0.00000000       0.00000000       0.00000000 </v>
    <v>       0.50000000       0.00000000       0.00000000 </v>
    <v>       0.00000000       0.50000000       0.00000000 </v>
    <v>       0.50000000       0.50000000       0.00000000 </v>
    <v>       0.00000000       0.00000000       0.50000000 </v>
    <v>       0.50000000       0.00000000       0.50000000 </v>
    <v>       0.00000000       0.50000000       0.50000000 </v>
    <v>       0.50000000       0.50000000       0.50000000 </v>
    <v>       0.00000000       0.25000000       0.25000000 </v>
    <v>       0.50000000       0.25000000       0.25000000 </v>
    <v>       0.00000000       0.75000000       0.25000000 </v>
    <v>       0.50000000       0.75000000       0.25000000 </v>
    <v>       0.00000000       0.25000000       0.75000000 </v>
    <v>       0.50000000       0.25000000       0.75000000 </v>
    <v>       0.00000000       0.75000000       0.75000000 </v>
    <v>       0.50000000       0.75000000       0.75000000 </v>
    <v>       0.25000000       0.00000000       0.25000000 </v>
    <v>       0.75000000       0.00000000       0.25000000 </v>
    <v>       0.25000000       0.50000000       0.25000000 </v>
    <v>       0.75000000       0.50000000       0.25000000 </v>
    <v>       0.25000000       0.00000000       0.75000000 </v>
    <v>       0.75000000       0.00000000       0.75000000 </v>
    <v>       0.25000000       0.50000000       0.75000000 </v>
    <v>       0.75000000       0.50000000       0.75000000 </v>
    <v>       0.25000000       0.25000000       0.00000000 </v>
    <v>       0.75000000       0.25000000       0.00000000 </v>
    <v>       0.25000000       0.75000000       0.00000000 </v>
    <v>       0.75000000       0.75000000       0.00000000 </v>
    <v>       0.25000000       0.25000000       0.50000000 </v>
    <v>       0.75000000       0.25000000       0.50000000 </v>
    <v>       0.25000000       0.75000000       0.50000000 </v>
    <v>       0.75000000       0.75000000       0.50000000 </v>
    <v>       0.12576965       0.12500000       0.12500000 </v>
    <v>       0.62500000       0.12500000       0.12500000 </v>
    <v>       0.12500000       0.62500000       0.12500000 </v>
    <v>       0.62500000       0.62500000       0.12500000 </v>
    <v>       0.12500000       0.12500000       0.62500000 </v>
    <v>       0.62500000       0.12500000       0.62500000 </v>
    <v>       0.12500000       0.62500000       0.62500000 </v>
    <v>       0.62500000       0.62500000       0.62500000 </v>
    <v>       0.12500000       0.37500000       0.37500000 </v>
    <v>       0.62500000       0.37500000       0.37500000 </v>
    <v>       0.12500000       0.87500000       0.37500000 </v>
    <v>       0.62500000       0.87500000       0.37500000 </v>
    <v>       0.12500000       0.37500000       0.87500000 </v>
    <v>       0.62500000       0.37500000       0.87500000 </v>
    <v>       0.12500000       0.87500000       0.87500000 </v>
    <v>       0.62500000       0.87500000       0.87500000 </v>
    <v>       0.37500000       0.12500000       0.37500000 </v>
    <v>       0.87500000       0.12500000       0.37500000 </v>
    <v>       0.37500000       0.62500000       0.37500000 </v>
    <v>       0.87500000       0.62500000       0.37500000 </v>
    <v>       0.37500000       0.12500000       0.87500000 </v>
    <v>       0.87500000       0.12500000       0.87500000 </v>
    <v>       0.37500000       0.62500000       0.87500000 </v>
    <v>       0.87500000       0.62500000       0.87500000 </v>
    <v>       0.37500000       0.37500000       0.12500000 </v>
    <v>       0.87500000       0.37500000       0.12500000 </v>
    <v>       0.37500000       0.87500000       0.12500000 </v>
    <v>       0.87500000       0.87500000       0.12500000 </v>
    <v>       0.37500000       0.37500000       0.62500000 </v>
    <v>       0.87500000       0.37500000       0.62500000 </v>
    <v>       0.37500000       0.87500000       0.62500000 </v>
    <v>       0.87500000       0.87500000       0.62500000 </v>
   </varray>
  </structure>
  <varray name="forces" >
   <v>       0.01240431       0.01170777       0.01170777 </v>
   <v>      -0.00058942       0.00000657       0.00000657 </v>
   <v>       0.00031777       0.00028238      -0.00013495 </v>
   <v>      -0.00053980      -0.00037991       0.00061288 </v>
   <v>       0.00031777      -0.00013495       0.00028238 </v>
   <v>      -0.00053980       0.00061288      -0.00037991 </v>
   <v>       0.00033339      -0.00009662      -0.00009662 </v>
   <v>      -0.00019680       0.00004750       0.00004750 </v>
   <v>       0.01240431      -0.01170777      -0.01170777 </v>
   <v>      -0.00058942      -0.00000657      -0.00000657 </v>
   <v>       0.00031777      -0.00028238       0.00013495 </v>
   <v>      -0.00053980       0.00037991      -0.00061288 </v>
   <v>       0.00031777       0.00013495      -0.00028238 </v>
   <v>      -0.00053980      -0.00061288       0.00037991 </v>
   <v>       0.00033339       0.00009662       0.00009662 </v>
   <v>      -0.00019680      -0.00004750      -0.00004750 </v>
   <v>       0.01255795      -0.01202073       0.01202073 </v>
   <v>      -0.00058858      -0.00000657       0.00000657 </v>
   <v>       0.00032108      -0.00028238      -0.00013872 </v>
   <v>      -0.00054015       0.00038051       0.00060795 </v>
   <v>       0.00032108       0.00013872       0.00028238 </v>
   <v>      -0.00054015      -0.00060795      -0.00038051 </v>
   <v>       0.00033997       0.00009687      -0.00009687 </v>
   <v>      -0.00019770      -0.00004780       0.00004780 </v>
   <v>       0.01255795       0.01202073      -0.01202073 </v>
   <v>      -0.00058858       0.00000657      -0.00000657 </v>
   <v>       0.00032108       0.00028238       0.00013872 </v>
   <v>      -0.00054015      -0.00038051      -0.00060795 </v>
   <v>       0.00032108      -0.00013872      -0.00028238 </v>
   <v>      -0.00054015       0.00060795       0.00038051 </v>
   <v>       0.00033997      -0.00009687       0.00009687 </v>
   <v>      -0.00019770       0.00004780      -0.00004780 </v>
   <v>      -0.06715189       0.00000000      -0.00000000 </v>
   <v>       0.00036110       0.00000000      -0.00000000 </v>
   <v>      -0.00021095       0.00000000      -0.00000000 </v>
   <v>       0.00111199       0.00000000      -0.00000000 </v>
   <v>      -0.00021095       0.00000000      -0.00000000 </v>
   <v>       0.00111199       0.00000000      -0.00000000 </v>
   <v>      -0.00016580       0.00000000      -0.00000000 </v>
   <v>       0.00011574       0.00000000      -0.00000000 </v>
   <v>       0.00017245       0.00051578       0.00051578 </v>
   <v>       0.00029613      -0.00003327      -0.00003327 </v>
   <v>       0.00017800       0.00053036      -0.00053036 </v>
   <v>       0.00029668      -0.00003371       0.00003371 </v>
   <v>       0.00017800      -0.00053036       0.00053036 </v>
   <v>       0.00029668       0.00003371      -0.00003371 </v>
   <v>       0.00017245      -0.00051578      -0.00051578 </v>
   <v>       0.00029613       0.00003327       0.00003327 </v>
   <v>       0.00208752      -0.00052064       0.00239112 </v>
   <v>       0.00206917      -0.00052525      -0.00236465 </v>
   <v>       0.00001963       0.00003295       0.00009071 </v>
   <v>       0.00002129       0.00003335      -0.00008914 </v>
   <v>       0.00208752       0.00052064      -0.00239112 </v>
   <v>       0.00206917       0.00052525       0.00236465 </v>
   <v>       0.00001963      -0.00003295      -0.00009071 </v>
   <v>       0.00002129      -0.00003335       0.00008914 </v>
   <v>       0.00208752       0.00239112      -0.00052064 </v>
   <v>       0.00206917      -0.00236465      -0.00052525 </v>
   <v>       0.00208752      -0.00239112       0.00052064 </v>
   <v>       0.00206917       0.00236465       0.00052525 </v>
   <v>       0.00001963       0.00009071       0.00003295 </v>
   <v>       0.00002129      -0.00008914       0.00003335 </v>
   <v>       0.00001963      -0.00009071      -0.00003295 </v>
   <v>       0.00002129       0.00008914      -0.00003335 </v>
  </varray>
  <varray name="stress" >
   <v>      20.11384135       0.00000000       0.00000000 </v>
   <v>       0.00000000      20.11463911      -0.04744323 </v>
   <v>       0.00000000      -0.04744323      20.11463911 </v>
  </varray>
  <energy>
   <i name="e_fr_energy">   -152.96108177 </i>
   <i name="e_wo_entrp">   -152.96108177 </i>
   <i name="e_0_energy">   -152.96108177 </i>
  </energy>
  <time name="totalsc">  514.19  518.78</time>
  <eigenvalues>
   <array>
    <dimension dim="1">band</dimension>
    <dimension dim="2">kpoint</dimension>
    <dimension dim="3">spin</dimension>
    <field>eigene</field>
    <field>occ</field>
    <set>
     <set comment="spin 1">
      <set comment="kpoint 1">
       <r>   -8.8516    1.0000 </r>
       <r>   -8.5915    1.0000 </r>
       <r>   -8.5913    1.0000 </r>
       <r>   -8.5913    1.0000 </r>
       <r>   -8.5913    1.0000 </r>
       <r>   -8.5912    1.0000 </r>
       <r>   -8.5911    1.0000 </r>
       <r>   -8.4643    1.0000 </r>
       <r>   -8.4643    1.0000 </r>
       <r>   -8.4643    1.0000 </r>
       <r>   -8.4640    1.0000 </r>
       <r>   -8.4639    1.0000 </r>
       <r>   -8.4639    1.0000 </r>
       <r>   -8.4639    1.0000 </r>
       <r>   -8.4639    1.0000 </r>
       <r>   -8.4638    1.0000 </r>
       <r>   -8.4636    1.0000 </r>
       <r>   -8.4636    1.0000 </r>
       <r>   -8.4635    1.0000 </r>
       <r>   -8.4613    1.0000 </r>
       <r>   -8.4611    1.0000 </r>
       <r>   -8.4611    1.0000 </r>
       <r>   -8.4611    1.0000 </r>
       <r>   -8.3443    1.0000 </r>
       <r>   -8.3440    1.0000 </r>
       <r>   -8.3439    1.0000 </r>
       <r>   -8.3439    1.0000 </r>
       <r>   -8.3439    1.0000 </r>
       <r>   -8.3437    1.0000 </r>
       <r>   -8.3424    1.0000 </r>
       <r>   -8.3424    1.0000 </r>
       <r>   -8.3422    1.0000 </r>
       <r>   -5.9699    1.0000 </r>
       <r>   -5.9697    1.0000 </r>
       <r>   -5.9696    1.0000 </r>
       <r>   -5.9079    1.0000 </r>
       <r>   -5.9076    1.0000 </r>
       <r>   -5.9075    1.0000 </r>
       <r>   -5.9075    1.0000 </r>
       <r>   -5.9074    1.0000 </r>
       <r>   -5.9073    1.0000 </r>
       <r>   -5.9072    1.0000 </r>
       <r>   -5.9070    1.0000 </r>
       <r>   -5.8949    1.0000 </r>
       <r>   -5.8940    1.0000 </r>
       <r>   -5.8940    1.0000 </r>
       <r>   -5.8939    1.0000 </r>
       <r>   -5.8939    1.0000 </r>
       <r>   -5.8939    1.0000 </r>
       <r>   -5.8939    1.0000 </r>
       <r>   -5.8938    1.0000 </r>
       <r>   -5.8938    1.0000 </r>
       <r>   -5.8937    1.0000 </r>
       <r>   -5.8937    1.0000 </r>
       <r>   -5.8934    1.0000 </r>
       <r>   -5.8920    1.0000 </r>
       <r>   -5.8916    1.0000 </r>
       <r>   -5.8916    1.0000 </r>
       <r>   -5.8915    1.0000 </r>
       <r>   -5.8915    1.0000 </r>
       <r>   -5.8915    1.0000 </r>
       <r>   -5.8914    1.0000 </r>
       <r>   -5.8914    1.0000 </r>
       <r>   -5.8914    1.0000 </r>
       <r>   -5.8914    1.0000 </r>
       <r>   -5.8913    1.0000 </r>
       <r>   -5.8908    1.0000 </r>
       <r>   -5.8896    1.0000 </r>
       <r>   -5.8894    1.0000 </r>
       <r>   -5.8892    1.0000 </r>
       <r>   -5.8892    1.0000 </r>
       <r>   -5.8892    1.0000 </r>
       <r>   -5.8892    1.0000 </r>
       <r>   -5.8891    1.0000 </r>
       <r>   -5.8891    1.0000 </r>
       <r>   -5.8891    1.0000 </r>
       <r>   -5.8891    1.0000 </r>
       <r>   -5.8889    1.0000 </r>
       <r>   -5.8883    1.0000 </r>
       <r>   -5.8490    1.0000 </r>
       <r>   -5.8487    1.0000 </r>
       <r>   -5.8486    1.0000 </r>
       <r>   -5.8486    1.0000 </r>
       <r>   -5.8486    1.0000 </r>
       <r>   -5.8483    1.0000 </r>
       <r>   -5.8438    1.0000 </r>
       <r>   -5.8437    1.0000 </r>
       <r>   -5.8436    1.0000 </r>
       <r>   -5.8436    1.0000 </r>
       <r>   -5.8435    1.0000 </r>
       <r>   -5.8434    1.0000 </r>
       <r>   -5.8163    1.0000 </r>
       <r>   -5.8161    1.0000 </r>
       <r>   -5.8160    1.0000 </r>
       <r>   -5.8121    1.0000 </r>
       <r>   -5.8120    1.0000 </r>
       <r>   -5.8120    1.0000 </r>
       <r>   -5.8120    1.0000 </r>
       <r>   -5.8120    1.0000 </r>
       <r>   -5.8118    1.0000 </r>
       <r>   -5.8101    1.0000 </r>
       <r>   -5.8098    1.0000 </r>
       <r>   -5.8097    1.0000 </r>
       <r>   -5.8097    1.0000 </r>
       <r>   -5.8097    1.0000 </r>
       <r>   -5.8093    1.0000 </r>
       <r>   -5.7424    1.0000 </r>
       <r>   -5.7423    1.0000 </r>
       <r>   -5.7423    1.0000 </r>
       <r>   -5.7423    1.0000 </r>
       <r>   -5.7422    1.0000 </r>
       <r>   -5.7422    1.0000 </r>
       <r>   -5.7221    1.0000 </r>
       <r>   -5.7221    1.0000 </r>
       <r>   -5.7220    1.0000 </r>
       <r>   -5.7220    1.0000 </r>
       <r>   -5.7218    1.0000 </r>
       <r>   -5.7218    1.0000 </r>
       <r>   -5.7216    1.0000 </r>
       <r>   -5.7216    1.0000 </r>
       <r>   -5.7215    1.0000 </r>
       <r>   -5.7215    1.0000 </r>
       <r>   -5.7215    1.0000 </r>
       <r>   -5.7215    1.0000 </r>
       <r>   -5.7210    1.0000 </r>
       <r>   -5.7209    1.0000 </r>
       <r>   -5.7209    1.0000 </r>
       <r>   -5.7209    1.0000 </r>
       <r>   -5.7208    1.0000 </r>
       <r>   -5.7208    1.0000 </r>
       <r>   -5.7206    1.0000 </r>
       <r>   -5.7206    1.0000 </r>
       <r>   -5.7205    1.0000 </r>
       <r>   -5.7205    1.0000 </r>
       <r>   -5.7205    1.0000 </r>
       <r>   -5.7204    1.0000 </r>
       <r>   -5.7139    1.0000 </r>
       <r>   -5.7138    1.0000 </r>
       <r>   -5.7137    1.0000 </r>
       <r>   -5.7135    1.0000 </r>
       <r>   -5.7134    1.0000 </r>
       <r>   -5.7133    1.0000 </r>
       <r>   -5.7133    1.0000 </r>
       <r>   -5.7132    1.0000 </r>
       <r>   -5.7054    1.0000 </r>
       <r>   -5.7053    1.0000 </r>
       <r>   -5.7053    1.0000 </r>
       <r>   -5.7053    1.0000 </r>
       <r>   -5.7050    1.0000 </r>
       <r>   -5.7050    1.0000 </r>
       <r>   -5.7050    1.0000 </r>
       <r>   -5.7049    1.0000 </r>
       <r>   -5.6988    1.0000 </r>
       <r>   -5.6987    1.0000 </r>
       <r>   -5.6986    1.0000 </r>
       <r>   -5.6986    1.0000 </r>
       <r>   -5.6985    1.0000 </r>
       <r>   -5.6984    1.0000 </r>
       <r>   -5.6849    1.0000 </r>
       <r>   -5.6849    1.0000 </r>
       <r>   -5.6848    1.0000 </r>
       <r>   -5.6848    1.0000 </r>
       <r>   -5.6847    1.0000 </r>
       <r>   -5.6847    1.0000 </r>
       <r>   -5.6841    1.0000 </r>
       <r>   -5.6839    1.0000 </r>
       <r>   -5.6839    1.0000 </r>
       <r>   -5.4435    1.0000 </r>
       <r>   -5.4433    1.0000 </r>
       <r>   -5.4431    1.0000 </r>
       <r>   -5.4430    1.0000 </r>
       <r>   -5.4430    1.0000 </r>
       <r>   -5.4430    1.0000 </r>
       <r>   -5.4430    1.0000 </r>
       <r>   -5.4430    1.0000 </r>
       <r>   -5.4429    1.0000 </r>
       <r>   -5.4429    1.0000 </r>
       <r>   -5.4427    1.0000 </r>
       <r>   -5.4425    1.0000 </r>
       <r>   -5.3683    1.0000 </r>
       <r>   -5.3683    1.0000 </r>
       <r>   -5.3682    1.0000 </r>
       <r>   -5.3682    1.0000 </r>
       <r>   -5.2315    1.0000 </r>
       <r>   -5.2315    1.0000 </r>
       <r>   -5.2315    1.0000 </r>
       <r>   -5.1517    1.0000 </r>
       <r>   -5.1517    1.0000 </r>
       <r>   -5.1516    1.0000 </r>
       <r>   -5.1516    1.0000 </r>
       <r>   -5.1516    1.0000 </r>
       <r>   -5.1516    1.0000 </r>
       <r>   -2.1029    1.0000 </r>
       <r>   -2.1024    1.0000 </r>
       <r>   -2.1022    1.0000 </r>
       <r>   -2.1017    1.0000 </r>
       <r>   -1.9919    1.0000 </r>
       <r>   -1.9912    1.0000 </r>
       <r>   -1.9904    1.0000 </r>
       <r>   -1.8705    1.0000 </r>
       <r>   -1.8690    1.0000 </r>
       <r>   -1.8689    1.0000 </r>
       <r>   -1.8688    1.0000 </r>
       <r>   -1.8688    1.0000 </r>
       <r>   -1.8673    1.0000 </r>
       <r>   -1.4041    1.0000 </r>
       <r>   -1.4026    1.0000 </r>
       <r>   -1.4020    1.0000 </r>
       <r>   -1.4019    1.0000 </r>
       <r>   -1.4018    1.0000 </r>
       <r>   -1.4018    1.0000 </r>
       <r>   -1.4018    1.0000 </r>
       <r>   -1.4018    1.0000 </r>
       <r>   -1.4017    1.0000 </r>
       <r>   -1.4017    1.0000 </r>
       <r>   -1.4011    1.0000 </r>
       <r>   -1.3996    1.0000 </r>
       <r>   -0.3726    1.0000 </r>
       <r>   -0.3719    1.0000 </r>
       <r>   -0.3717    1.0000 </r>
       <r>   -0.3717    1.0000 </r>
       <r>   -0.3714    1.0000 </r>
       <r>   -0.3707    1.0000 </r>
       <r>   -0.0139    1.0000 </r>
       <r>   -0.0137    1.0000 </r>
       <r>   -0.0136    1.0000 </r>
       <r>   -0.0136    1.0000 </r>
       <r>   -0.0136    1.0000 </r>
       <r>   -0.0134    1.0000 </r>
       <r>    0.1144    1.0000 </r>
       <r>    0.1152    1.0000 </r>
       <r>    0.1155    1.0000 </r>
       <r>    0.1155    1.0000 </r>
       <r>    0.1157    1.0000 </r>
       <r>    0.1164    1.0000 </r>
       <r>    0.1623    1.0000 </r>
       <r>    0.1623    1.0000 </r>
       <r>    0.1625    1.0000 </r>
       <r>    0.1634    1.0000 </r>
       <r>    0.1634    1.0000 </r>
       <r>    0.1634    1.0000 </r>
       <r>    0.1635    1.0000 </r>
       <r>    0.1635    1.0000 </r>
       <r>    0.1635    1.0000 </r>
       <r>    0.1645    1.0000 </r>
       <r>    0.1646    1.0000 </r>
       <r>    0.1646    1.0000 </r>
       <r>    0.4420    1.0000 </r>
       <r>    0.4422    1.0000 </r>
       <r>    0.4422    1.0000 </r>
       <r>    0.4422    1.0000 </r>
       <r>    0.4422    1.0000 </r>
       <r>    0.4425    1.0000 </r>
       <r>    1.2097    1.0000 </r>
       <r>    1.2103    1.0000 </r>
       <r>    1.2111    1.0000 </r>
       <r>    1.2112    1.0000 </r>
       <r>    1.2112    1.0000 </r>
       <r>    1.2112    1.0000 </r>
       <r>    1.2112    1.0000 </r>
       <r>    1.2112    1.0000 </r>
       <r>    1.2112    1.0000 </r>
       <r>    1.2113    1.0000 </r>
       <r>    1.2121    1.0000 </r>
       <r>    1.2127    1.0000 </r>
       <r>    1.4862    1.0000 </r>
       <r>    1.4863    1.0000 </r>
       <r>    1.4871    1.0000 </r>
       <r>    1.4873    1.0000 </r>
       <r>    1.4873    1.0000 </r>
       <r>    1.4873    1.0000 </r>
       <r>    1.4874    1.0000 </r>
       <r>    1.4874    1.0000 </r>
       <r>    1.4874    1.0000 </r>
       <r>    1.4876    1.0000 </r>
       <r>    1.4884    1.0000 </r>
       <r>    1.4885    1.0000 </r>
       <r>    1.5175    1.0000 </r>
       <r>    1.5176    1.0000 </r>
       <r>    1.5181    1.0000 </r>
       <r>    1.5181    1.0000 </r>
       <r>    1.5182    1.0000 </r>
       <r>    1.5182    1.0000 </r>
       <r>    1.5188    1.0000 </r>
       <r>    1.5190    1.0000 </r>
       <r>    2.2826    1.0000 </r>
       <r>    2.2829    1.0000 </r>
       <r>    2.2831    1.0000 </r>
       <r>    3.0290    0.0000 </r>
       <r>    4.0917    0.0000 </r>
       <r>    4.0923    0.0000 </r>
       <r>    4.0926    0.0000 </r>
       <r>    4.0931    0.0000 </r>
       <r>    4.9054    0.0000 </r>
       <r>    4.9055    0.0000 </r>
       <r>    4.9055    0.0000 </r>
       <r>    4.9513    0.0000 </r>
       <r>    4.9525    0.0000 </r>
       <r>    4.9536    0.0000 </r>
       <r>    5.2091    0.0000 </r>
       <r>    5.2113    0.0000 </r>
       <r>    5.2113    0.0000 </r>
       <r>    5.2113    0.0000 </r>
       <r>    5.2114    0.0000 </r>
       <r>    5.2135    0.0000 </r>
       <r>    5.4037    0.0000 </r>
       <r>    5.4052    0.0000 </r>
       <r>    5.4066    0.0000 </r>
       <r>    5.4066    0.0000 </r>
       <r>    5.4067    0.0000 </r>
       <r>    5.4067    0.0000 </r>
       <r>    5.4068    0.0000 </r>
       <r>    5.4068    0.0000 </r>
       <r>    5.4068    0.0000 </r>
       <r>    5.4068    0.0000 </r>
       <r>    5.4082    0.0000 </r>
       <r>    5.4098    0.0000 </r>
       <r>    5.6248    0.0000 </r>
       <r>    5.6250    0.0000 </r>
       <r>    5.6255    0.0000 </r>
       <r>    5.6255    0.0000 </r>
       <r>    5.6260    0.0000 </r>
       <r>    5.6262    0.0000 </r>
       <r>    6.5081    0.0000 </r>
       <r>    6.5106    0.0000 </r>
       <r>    6.5107    0.0000 </r>
       <r>    6.5107    0.0000 </r>
       <r>    6.5108    0.0000 </r>
       <r>    6.5132    0.0000 </r>
       <r>    6.8882    0.0000 </r>
       <r>    6.8884    0.0000 </r>
       <r>    6.8886    0.0000 </r>
       <r>    6.9670    0.0000 </r>
       <r>    6.9679    0.0000 </r>
       <r>    6.9683    0.0000 </r>
       <r>    6.9683    0.0000 </r>
       <r>    6.9686    0.0000 </r>
       <r>    6.9695    0.0000 </r>
       <r>    7.4716    0.0000 </r>
       <r>    7.4718    0.0000 </r>
       <r>    7.4727    0.0000 </r>
       <r>    7.4729    0.0000 </r>
       <r>    7.4730    0.0000 </r>
       <r>    7.4732    0.0000 </r>
       <r>    7.4738    0.0000 </r>
       <r>    7.4739    0.0000 </r>
       <r>    7.4890    0.0000 </r>
       <r>    7.4901    0.0000 </r>
       <r>    7.4909    0.0000 </r>
       <r>    7.4913    0.0000 </r>
       <r>    7.4916    0.0000 </r>
       <r>    7.4916    0.0000 </r>
       <r>    7.4916    0.0000 </r>
       <r>    7.4917    0.0000 </r>
       <r>    7.4920    0.0000 </r>
       <r>    7.4923    0.0000 </r>
       <r>    7.4933    0.0000 </r>
       <r>    7.4947    0.0000 </r>
       <r>    7.8379    0.0000 </r>
       <r>    7.8383    0.0000 </r>
       <r>    7.8383    0.0000 </r>
       <r>    7.8383    0.0000 </r>
       <r>    7.8384    0.0000 </r>
       <r>    7.8387    0.0000 </r>
       <r>    7.9323    0.0000 </r>
       <r>    7.9332    0.0000 </r>
       <r>    7.9343    0.0000 </r>
       <r>    7.9345    0.0000 </r>
       <r>    7.9346    0.0000 </r>
       <r>    7.9347    0.0000 </r>
       <r>    7.9347    0.0000 </r>
       <r>    7.9347    0.0000 </r>
       <r>    7.9348    0.0000 </r>
       <r>    7.9351    0.0000 </r>
       <r>    7.9361    0.0000 </r>
       <r>    7.9370    0.0000 </r>
       <r>    8.1222    0.0000 </r>
       <r>    8.1226    0.0000 </r>
       <r>    8.1235    0.0000 </r>
       <r>    8.1237    0.0000 </r>
       <r>    8.1238    0.0000 </r>
       <r>    8.1241    0.0000 </r>
       <r>    8.1248    0.0000 </r>
       <r>    8.1255    0.0000 </r>
      </set>
      <set comment="kpoint 2">
       <r>   -8.8166    1.0000 </r>
       <r>   -8.7210    1.0000 </r>
       <r>   -8.5739    1.0000 </r>
       <r>   -8.5738    1.0000 </r>
       <r>   -8.5738    1.0000 </r>
       <r>   -8.5738    1.0000 </r>
       <r>   -8.5268    1.0000 </r>
       <r>   -8.5267    1.0000 </r>
       <r>   -8.5267    1.0000 </r>
       <r>   -8.5267    1.0000 </r>
       <r>   -8.4643    1.0000 </r>
       <r>   -8.4634    1.0000 </r>
       <r>   -8.4634    1.0000 </r>
       <r>   -8.4633    1.0000 </r>
       <r>   -8.4632    1.0000 </r>
       <r>   -8.4619    1.0000 </r>
       <r>   -8.4618    1.0000 </r>
       <r>   -8.4617    1.0000 </r>
       <r>   -8.4617    1.0000 </r>
       <r>   -8.4030    1.0000 </r>
       <r>   -8.4030    1.0000 </r>
       <r>   -8.4029    1.0000 </r>
       <r>   -8.4029    1.0000 </r>
       <r>   -8.3743    1.0000 </r>
       <r>   -8.3596    1.0000 </r>
       <r>   -8.3596    1.0000 </r>
       <r>   -8.3596    1.0000 </r>
       <r>   -8.3595    1.0000 </r>
       <r>   -8.3438    1.0000 </r>
       <r>   -8.3436    1.0000 </r>
       <r>   -8.3427    1.0000 </r>
       <r>   -8.3424    1.0000 </r>
       <r>   -5.9596    1.0000 </r>
       <r>   -5.9594    1.0000 </r>
       <r>   -5.9495    1.0000 </r>
       <r>   -5.9325    1.0000 </r>
       <r>   -5.9322    1.0000 </r>
       <r>   -5.9061    1.0000 </r>
       <r>   -5.9059    1.0000 </r>
       <r>   -5.9059    1.0000 </r>
       <r>   -5.9058    1.0000 </r>
       <r>   -5.9041    1.0000 </r>
       <r>   -5.9038    1.0000 </r>
       <r>   -5.9037    1.0000 </r>
       <r>   -5.9035    1.0000 </r>
       <r>   -5.9035    1.0000 </r>
       <r>   -5.9034    1.0000 </r>
       <r>   -5.9034    1.0000 </r>
       <r>   -5.9034    1.0000 </r>
       <r>   -5.9034    1.0000 </r>
       <r>   -5.9033    1.0000 </r>
       <r>   -5.9031    1.0000 </r>
       <r>   -5.9031    1.0000 </r>
       <r>   -5.8963    1.0000 </r>
       <r>   -5.8958    1.0000 </r>
       <r>   -5.8955    1.0000 </r>
       <r>   -5.8954    1.0000 </r>
       <r>   -5.8952    1.0000 </r>
       <r>   -5.8949    1.0000 </r>
       <r>   -5.8949    1.0000 </r>
       <r>   -5.8948    1.0000 </r>
       <r>   -5.8948    1.0000 </r>
       <r>   -5.8948    1.0000 </r>
       <r>   -5.8947    1.0000 </r>
       <r>   -5.8945    1.0000 </r>
       <r>   -5.8944    1.0000 </r>
       <r>   -5.8944    1.0000 </r>
       <r>   -5.8942    1.0000 </r>
       <r>   -5.8939    1.0000 </r>
       <r>   -5.8873    1.0000 </r>
       <r>   -5.8769    1.0000 </r>
       <r>   -5.8766    1.0000 </r>
       <r>   -5.8766    1.0000 </r>
       <r>   -5.8763    1.0000 </r>
       <r>   -5.8671    1.0000 </r>
       <r>   -5.8669    1.0000 </r>
       <r>   -5.8669    1.0000 </r>
       <r>   -5.8668    1.0000 </r>
       <r>   -5.8598    1.0000 </r>
       <r>   -5.8596    1.0000 </r>
       <r>   -5.8596    1.0000 </r>
       <r>   -5.8593    1.0000 </r>
       <r>   -5.8528    1.0000 </r>
       <r>   -5.8526    1.0000 </r>
       <r>   -5.8480    1.0000 </r>
       <r>   -5.8478    1.0000 </r>
       <r>   -5.8478    1.0000 </r>
       <r>   -5.8476    1.0000 </r>
       <r>   -5.8406    1.0000 </r>
       <r>   -5.8404    1.0000 </r>
       <r>   -5.8398    1.0000 </r>
       <r>   -5.8398    1.0000 </r>
       <r>   -5.8305    1.0000 </r>
       <r>   -5.8303    1.0000 </r>
       <r>   -5.8214    1.0000 </r>
       <r>   -5.8212    1.0000 </r>
       <r>   -5.8201    1.0000 </r>
       <r>   -5.8201    1.0000 </r>
       <r>   -5.8114    1.0000 </r>
       <r>   -5.8018    1.0000 </r>
       <r>   -5.7879    1.0000 </r>
       <r>   -5.7877    1.0000 </r>
       <r>   -5.7824    1.0000 </r>
       <r>   -5.7824    1.0000 </r>
       <r>   -5.7823    1.0000 </r>
       <r>   -5.7823    1.0000 </r>
       <r>   -5.7603    1.0000 </r>
       <r>   -5.7603    1.0000 </r>
       <r>   -5.7429    1.0000 </r>
       <r>   -5.7428    1.0000 </r>
       <r>   -5.7428    1.0000 </r>
       <r>   -5.7427    1.0000 </r>
       <r>   -5.7408    1.0000 </r>
       <r>   -5.7407    1.0000 </r>
       <r>   -5.7407    1.0000 </r>
       <r>   -5.7407    1.0000 </r>
       <r>   -5.7333    1.0000 </r>
       <r>   -5.7332    1.0000 </r>
       <r>   -5.7332    1.0000 </r>
       <r>   -5.7331    1.0000 </r>
       <r>   -5.7214    1.0000 </r>
       <r>   -5.7175    1.0000 </r>
       <r>   -5.7175    1.0000 </r>
       <r>   -5.7171    1.0000 </r>
       <r>   -5.7171    1.0000 </r>
       <r>   -5.7169    1.0000 </r>
       <r>   -5.7162    1.0000 </r>
       <r>   -5.7162    1.0000 </r>
       <r>   -5.7158    1.0000 </r>
       <r>   -5.7158    1.0000 </r>
       <r>   -5.7130    1.0000 </r>
       <r>   -5.7130    1.0000 </r>
       <r>   -5.7129    1.0000 </r>
       <r>   -5.7129    1.0000 </r>
       <r>   -5.7126    1.0000 </r>
       <r>   -5.7126    1.0000 </r>
       <r>   -5.7125    1.0000 </r>
       <r>   -5.7124    1.0000 </r>
       <r>   -5.7115    1.0000 </r>
       <r>   -5.7094    1.0000 </r>
       <r>   -5.7093    1.0000 </r>
       <r>   -5.7093    1.0000 </r>
       <r>   -5.7092    1.0000 </r>
       <r>   -5.7092    1.0000 </r>
       <r>   -5.7091    1.0000 </r>
       <r>   -5.7088    1.0000 </r>
       <r>   -5.7088    1.0000 </r>
       <r>   -5.7085    1.0000 </r>
       <r>   -5.7084    1.0000 </r>
       <r>   -5.7081    1.0000 </r>
       <r>   -5.7080    1.0000 </r>
       <r>   -5.7060    1.0000 </r>
       <r>   -5.7014    1.0000 </r>
       <r>   -5.7012    1.0000 </r>
       <r>   -5.7011    1.0000 </r>
       <r>   -5.7010    1.0000 </r>
       <r>   -5.7010    1.0000 </r>
       <r>   -5.7008    1.0000 </r>
       <r>   -5.6912    1.0000 </r>
       <r>   -5.6882    1.0000 </r>
       <r>   -5.6880    1.0000 </r>
       <r>   -5.6858    1.0000 </r>
       <r>   -5.6620    1.0000 </r>
       <r>   -5.6619    1.0000 </r>
       <r>   -5.6619    1.0000 </r>
       <r>   -5.6618    1.0000 </r>
       <r>   -5.5784    1.0000 </r>
       <r>   -5.5782    1.0000 </r>
       <r>   -5.5782    1.0000 </r>
       <r>   -5.5781    1.0000 </r>
       <r>   -5.5228    1.0000 </r>
       <r>   -5.4253    1.0000 </r>
       <r>   -5.4252    1.0000 </r>
       <r>   -5.4252    1.0000 </r>
       <r>   -5.4252    1.0000 </r>
       <r>   -5.3879    1.0000 </r>
       <r>   -5.3878    1.0000 </r>
       <r>   -5.3878    1.0000 </r>
       <r>   -5.3878    1.0000 </r>
       <r>   -5.3254    1.0000 </r>
       <r>   -5.2989    1.0000 </r>
       <r>   -5.2988    1.0000 </r>
       <r>   -5.2988    1.0000 </r>
       <r>   -5.2987    1.0000 </r>
       <r>   -5.2107    1.0000 </r>
       <r>   -5.2107    1.0000 </r>
       <r>   -5.1911    1.0000 </r>
       <r>   -5.1910    1.0000 </r>
       <r>   -5.1910    1.0000 </r>
       <r>   -5.1909    1.0000 </r>
       <r>   -5.1711    1.0000 </r>
       <r>   -5.1711    1.0000 </r>
       <r>   -1.9684    1.0000 </r>
       <r>   -1.9677    1.0000 </r>
       <r>   -1.9675    1.0000 </r>
       <r>   -1.9671    1.0000 </r>
       <r>   -1.9642    1.0000 </r>
       <r>   -1.9627    1.0000 </r>
       <r>   -1.9037    1.0000 </r>
       <r>   -1.9020    1.0000 </r>
       <r>   -1.8303    1.0000 </r>
       <r>   -1.8295    1.0000 </r>
       <r>   -1.8295    1.0000 </r>
       <r>   -1.8287    1.0000 </r>
       <r>   -1.7631    1.0000 </r>
       <r>   -1.6854    1.0000 </r>
       <r>   -1.6847    1.0000 </r>
       <r>   -1.6847    1.0000 </r>
       <r>   -1.6840    1.0000 </r>
       <r>   -1.6352    1.0000 </r>
       <r>   -1.6345    1.0000 </r>
       <r>   -1.6344    1.0000 </r>
       <r>   -1.6337    1.0000 </r>
       <r>   -1.1730    1.0000 </r>
       <r>   -1.0029    1.0000 </r>
       <r>   -1.0022    1.0000 </r>
       <r>   -1.0022    1.0000 </r>
       <r>   -1.0015    1.0000 </r>
       <r>   -0.5832    1.0000 </r>
       <r>   -0.5823    1.0000 </r>
       <r>   -0.5823    1.0000 </r>
       <r>   -0.5815    1.0000 </r>
       <r>   -0.1775    1.0000 </r>
       <r>   -0.1774    1.0000 </r>
       <r>   -0.1774    1.0000 </r>
       <r>   -0.1774    1.0000 </r>
       <r>   -0.1202    1.0000 </r>
       <r>   -0.1201    1.0000 </r>
       <r>   -0.1201    1.0000 </r>
       <r>   -0.1200    1.0000 </r>
       <r>    0.0957    1.0000 </r>
       <r>    0.0958    1.0000 </r>
       <r>    0.1906    1.0000 </r>
       <r>    0.1906    1.0000 </r>
       <r>    0.3223    1.0000 </r>
       <r>    0.3224    1.0000 </r>
       <r>    0.3533    1.0000 </r>
       <r>    0.3533    1.0000 </r>
       <r>    0.5190    1.0000 </r>
       <r>    0.5195    1.0000 </r>
       <r>    0.5199    1.0000 </r>
       <r>    0.5201    1.0000 </r>
       <r>    0.5209    1.0000 </r>
       <r>    0.5209    1.0000 </r>
       <r>    0.5212    1.0000 </r>
       <r>    0.5215    1.0000 </r>
       <r>    0.5357    1.0000 </r>
       <r>    0.5359    1.0000 </r>
       <r>    0.5464    1.0000 </r>
       <r>    0.5875    1.0000 </r>
       <r>    0.5879    1.0000 </r>
       <r>    0.5879    1.0000 </r>
       <r>    0.5882    1.0000 </r>
       <r>    0.8043    1.0000 </r>
       <r>    0.8046    1.0000 </r>
       <r>    1.0144    1.0000 </r>
       <r>    1.0149    1.0000 </r>
       <r>    1.0149    1.0000 </r>
       <r>    1.0154    1.0000 </r>
       <r>    1.0759    1.0000 </r>
       <r>    1.0762    1.0000 </r>
       <r>    1.0762    1.0000 </r>
       <r>    1.0764    1.0000 </r>
       <r>    1.1660    1.0000 </r>
       <r>    1.1666    1.0000 </r>
       <r>    1.1666    1.0000 </r>
       <r>    1.1672    1.0000 </r>
       <r>    1.3596    1.0000 </r>
       <r>    1.3596    1.0000 </r>
       <r>    1.3596    1.0000 </r>
       <r>    1.3597    1.0000 </r>
       <r>    1.4944    1.0000 </r>
       <r>    1.4949    1.0000 </r>
       <r>    1.4950    1.0000 </r>
       <r>    1.4955    1.0000 </r>
       <r>    1.5098    1.0000 </r>
       <r>    1.5103    1.0000 </r>
       <r>    1.5104    1.0000 </r>
       <r>    1.5110    1.0000 </r>
       <r>    1.5254    1.0000 </r>
       <r>    1.5565    1.0000 </r>
       <r>    1.5567    1.0000 </r>
       <r>    1.5567    1.0000 </r>
       <r>    1.5569    1.0000 </r>
       <r>    1.6861    1.0000 </r>
       <r>    1.6865    1.0000 </r>
       <r>    2.1052    1.0000 </r>
       <r>    2.1057    1.0000 </r>
       <r>    3.8058    0.0000 </r>
       <r>    4.4540    0.0000 </r>
       <r>    4.4544    0.0000 </r>
       <r>    4.4547    0.0000 </r>
       <r>    4.4551    0.0000 </r>
       <r>    4.7542    0.0000 </r>
       <r>    4.8816    0.0000 </r>
       <r>    5.0188    0.0000 </r>
       <r>    5.0988    0.0000 </r>
       <r>    5.0990    0.0000 </r>
       <r>    5.0992    0.0000 </r>
       <r>    5.0995    0.0000 </r>
       <r>    5.1471    0.0000 </r>
       <r>    5.2287    0.0000 </r>
       <r>    5.2287    0.0000 </r>
       <r>    5.2523    0.0000 </r>
       <r>    5.2545    0.0000 </r>
       <r>    5.3254    0.0000 </r>
       <r>    5.3274    0.0000 </r>
       <r>    5.3274    0.0000 </r>
       <r>    5.3294    0.0000 </r>
       <r>    5.3882    0.0000 </r>
       <r>    5.3896    0.0000 </r>
       <r>    5.3896    0.0000 </r>
       <r>    5.3912    0.0000 </r>
       <r>    5.4442    0.0000 </r>
       <r>    5.6669    0.0000 </r>
       <r>    5.6681    0.0000 </r>
       <r>    5.6681    0.0000 </r>
       <r>    5.6693    0.0000 </r>
       <r>    5.9061    0.0000 </r>
       <r>    5.9067    0.0000 </r>
       <r>    5.9067    0.0000 </r>
       <r>    5.9072    0.0000 </r>
       <r>    5.9787    0.0000 </r>
       <r>    5.9808    0.0000 </r>
       <r>    6.0085    0.0000 </r>
       <r>    6.0804    0.0000 </r>
       <r>    6.0804    0.0000 </r>
       <r>    6.1628    0.0000 </r>
       <r>    6.1640    0.0000 </r>
       <r>    6.1640    0.0000 </r>
       <r>    6.1652    0.0000 </r>
       <r>    6.5732    0.0000 </r>
       <r>    6.7757    0.0000 </r>
       <r>    6.7759    0.0000 </r>
       <r>    6.7760    0.0000 </r>
       <r>    6.7762    0.0000 </r>
       <r>    7.1371    0.0000 </r>
       <r>    7.1376    0.0000 </r>
       <r>    7.1377    0.0000 </r>
       <r>    7.1380    0.0000 </r>
       <r>    7.1513    0.0000 </r>
       <r>    7.1517    0.0000 </r>
       <r>    7.2409    0.0000 </r>
       <r>    7.2412    0.0000 </r>
       <r>    7.2419    0.0000 </r>
       <r>    7.2422    0.0000 </r>
       <r>    7.3267    0.0000 </r>
       <r>    7.3271    0.0000 </r>
       <r>    7.3280    0.0000 </r>
       <r>    7.3284    0.0000 </r>
       <r>    7.3729    0.0000 </r>
       <r>    7.3734    0.0000 </r>
       <r>    7.3734    0.0000 </r>
       <r>    7.3739    0.0000 </r>
       <r>    7.5989    0.0000 </r>
       <r>    7.5994    0.0000 </r>
       <r>    7.5999    0.0000 </r>
       <r>    7.6001    0.0000 </r>
       <r>    7.6037    0.0000 </r>
       <r>    7.6039    0.0000 </r>
       <r>    7.6039    0.0000 </r>
       <r>    7.6043    0.0000 </r>
       <r>    7.7114    0.0000 </r>
       <r>    7.7116    0.0000 </r>
       <r>    7.7116    0.0000 </r>
       <r>    7.7119    0.0000 </r>
       <r>    7.7487    0.0000 </r>
       <r>    7.7490    0.0000 </r>
       <r>    7.7490    0.0000 </r>
       <r>    7.7494    0.0000 </r>
       <r>    7.8287    0.0000 </r>
       <r>    7.8291    0.0000 </r>
       <r>    7.9121    0.0000 </r>
       <r>    7.9123    0.0000 </r>
       <r>    7.9130    0.0000 </r>
       <r>    7.9132    0.0000 </r>
       <r>    8.0695    0.0000 </r>
       <r>    8.0696    0.0000 </r>
       <r>    8.0696    0.0000 </r>
       <r>    8.0698    0.0000 </r>
       <r>    8.4089    0.0000 </r>
       <r>    8.4092    0.0000 </r>
       <r>    8.4092    0.0000 </r>
       <r>    8.4095    0.0000 </r>
      </set>
      <set comment="kpoint 3">
       <r>   -8.8166    1.0000 </r>
       <r>   -8.7210    1.0000 </r>
       <r>   -8.5740    1.0000 </r>
       <r>   -8.5739    1.0000 </r>
       <r>   -8.5738    1.0000 </r>
       <r>   -8.5737    1.0000 </r>
       <r>   -8.5269    1.0000 </r>
       <r>   -8.5268    1.0000 </r>
       <r>   -8.5267    1.0000 </r>
       <r>   -8.5266    1.0000 </r>
       <r>   -8.4643    1.0000 </r>
       <r>   -8.4634    1.0000 </r>
       <r>   -8.4632    1.0000 </r>
       <r>   -8.4632    1.0000 </r>
       <r>   -8.4631    1.0000 </r>
       <r>   -8.4620    1.0000 </r>
       <r>   -8.4619    1.0000 </r>
       <r>   -8.4619    1.0000 </r>
       <r>   -8.4618    1.0000 </r>
       <r>   -8.4031    1.0000 </r>
       <r>   -8.4030    1.0000 </r>
       <r>   -8.4029    1.0000 </r>
       <r>   -8.4028    1.0000 </r>
       <r>   -8.3743    1.0000 </r>
       <r>   -8.3597    1.0000 </r>
       <r>   -8.3596    1.0000 </r>
       <r>   -8.3595    1.0000 </r>
       <r>   -8.3594    1.0000 </r>
       <r>   -8.3435    1.0000 </r>
       <r>   -8.3435    1.0000 </r>
       <r>   -8.3427    1.0000 </r>
       <r>   -8.3427    1.0000 </r>
       <r>   -5.9595    1.0000 </r>
       <r>   -5.9595    1.0000 </r>
       <r>   -5.9495    1.0000 </r>
       <r>   -5.9323    1.0000 </r>
       <r>   -5.9323    1.0000 </r>
       <r>   -5.9062    1.0000 </r>
       <r>   -5.9059    1.0000 </r>
       <r>   -5.9059    1.0000 </r>
       <r>   -5.9058    1.0000 </r>
       <r>   -5.9042    1.0000 </r>
       <r>   -5.9038    1.0000 </r>
       <r>   -5.9037    1.0000 </r>
       <r>   -5.9036    1.0000 </r>
       <r>   -5.9035    1.0000 </r>
       <r>   -5.9034    1.0000 </r>
       <r>   -5.9034    1.0000 </r>
       <r>   -5.9034    1.0000 </r>
       <r>   -5.9034    1.0000 </r>
       <r>   -5.9033    1.0000 </r>
       <r>   -5.9033    1.0000 </r>
       <r>   -5.9029    1.0000 </r>
       <r>   -5.8957    1.0000 </r>
       <r>   -5.8957    1.0000 </r>
       <r>   -5.8956    1.0000 </r>
       <r>   -5.8955    1.0000 </r>
       <r>   -5.8951    1.0000 </r>
       <r>   -5.8950    1.0000 </r>
       <r>   -5.8949    1.0000 </r>
       <r>   -5.8948    1.0000 </r>
       <r>   -5.8947    1.0000 </r>
       <r>   -5.8947    1.0000 </r>
       <r>   -5.8947    1.0000 </r>
       <r>   -5.8946    1.0000 </r>
       <r>   -5.8944    1.0000 </r>
       <r>   -5.8944    1.0000 </r>
       <r>   -5.8943    1.0000 </r>
       <r>   -5.8938    1.0000 </r>
       <r>   -5.8873    1.0000 </r>
       <r>   -5.8767    1.0000 </r>
       <r>   -5.8767    1.0000 </r>
       <r>   -5.8765    1.0000 </r>
       <r>   -5.8765    1.0000 </r>
       <r>   -5.8671    1.0000 </r>
       <r>   -5.8670    1.0000 </r>
       <r>   -5.8669    1.0000 </r>
       <r>   -5.8667    1.0000 </r>
       <r>   -5.8596    1.0000 </r>
       <r>   -5.8596    1.0000 </r>
       <r>   -5.8595    1.0000 </r>
       <r>   -5.8595    1.0000 </r>
       <r>   -5.8527    1.0000 </r>
       <r>   -5.8527    1.0000 </r>
       <r>   -5.8480    1.0000 </r>
       <r>   -5.8479    1.0000 </r>
       <r>   -5.8478    1.0000 </r>
       <r>   -5.8476    1.0000 </r>
       <r>   -5.8405    1.0000 </r>
       <r>   -5.8405    1.0000 </r>
       <r>   -5.8398    1.0000 </r>
       <r>   -5.8398    1.0000 </r>
       <r>   -5.8304    1.0000 </r>
       <r>   -5.8304    1.0000 </r>
       <r>   -5.8214    1.0000 </r>
       <r>   -5.8213    1.0000 </r>
       <r>   -5.8201    1.0000 </r>
       <r>   -5.8199    1.0000 </r>
       <r>   -5.8114    1.0000 </r>
       <r>   -5.8018    1.0000 </r>
       <r>   -5.7878    1.0000 </r>
       <r>   -5.7878    1.0000 </r>
       <r>   -5.7826    1.0000 </r>
       <r>   -5.7824    1.0000 </r>
       <r>   -5.7823    1.0000 </r>
       <r>   -5.7821    1.0000 </r>
       <r>   -5.7603    1.0000 </r>
       <r>   -5.7603    1.0000 </r>
       <r>   -5.7431    1.0000 </r>
       <r>   -5.7428    1.0000 </r>
       <r>   -5.7428    1.0000 </r>
       <r>   -5.7425    1.0000 </r>
       <r>   -5.7408    1.0000 </r>
       <r>   -5.7408    1.0000 </r>
       <r>   -5.7407    1.0000 </r>
       <r>   -5.7406    1.0000 </r>
       <r>   -5.7333    1.0000 </r>
       <r>   -5.7332    1.0000 </r>
       <r>   -5.7332    1.0000 </r>
       <r>   -5.7330    1.0000 </r>
       <r>   -5.7214    1.0000 </r>
       <r>   -5.7175    1.0000 </r>
       <r>   -5.7175    1.0000 </r>
       <r>   -5.7171    1.0000 </r>
       <r>   -5.7171    1.0000 </r>
       <r>   -5.7169    1.0000 </r>
       <r>   -5.7162    1.0000 </r>
       <r>   -5.7162    1.0000 </r>
       <r>   -5.7158    1.0000 </r>
       <r>   -5.7158    1.0000 </r>
       <r>   -5.7132    1.0000 </r>
       <r>   -5.7130    1.0000 </r>
       <r>   -5.7129    1.0000 </r>
       <r>   -5.7128    1.0000 </r>
       <r>   -5.7127    1.0000 </r>
       <r>   -5.7125    1.0000 </r>
       <r>   -5.7125    1.0000 </r>
       <r>   -5.7123    1.0000 </r>
       <r>   -5.7115    1.0000 </r>
       <r>   -5.7095    1.0000 </r>
       <r>   -5.7093    1.0000 </r>
       <r>   -5.7093    1.0000 </r>
       <r>   -5.7092    1.0000 </r>
       <r>   -5.7092    1.0000 </r>
       <r>   -5.7091    1.0000 </r>
       <r>   -5.7088    1.0000 </r>
       <r>   -5.7088    1.0000 </r>
       <r>   -5.7085    1.0000 </r>
       <r>   -5.7084    1.0000 </r>
       <r>   -5.7081    1.0000 </r>
       <r>   -5.7081    1.0000 </r>
       <r>   -5.7060    1.0000 </r>
       <r>   -5.7014    1.0000 </r>
       <r>   -5.7013    1.0000 </r>
       <r>   -5.7012    1.0000 </r>
       <r>   -5.7010    1.0000 </r>
       <r>   -5.7009    1.0000 </r>
       <r>   -5.7007    1.0000 </r>
       <r>   -5.6913    1.0000 </r>
       <r>   -5.6881    1.0000 </r>
       <r>   -5.6881    1.0000 </r>
       <r>   -5.6858    1.0000 </r>
       <r>   -5.6620    1.0000 </r>
       <r>   -5.6620    1.0000 </r>
       <r>   -5.6619    1.0000 </r>
       <r>   -5.6618    1.0000 </r>
       <r>   -5.5784    1.0000 </r>
       <r>   -5.5783    1.0000 </r>
       <r>   -5.5782    1.0000 </r>
       <r>   -5.5781    1.0000 </r>
       <r>   -5.5228    1.0000 </r>
       <r>   -5.4254    1.0000 </r>
       <r>   -5.4253    1.0000 </r>
       <r>   -5.4252    1.0000 </r>
       <r>   -5.4251    1.0000 </r>
       <r>   -5.3879    1.0000 </r>
       <r>   -5.3878    1.0000 </r>
       <r>   -5.3878    1.0000 </r>
       <r>   -5.3877    1.0000 </r>
       <r>   -5.3254    1.0000 </r>
       <r>   -5.2990    1.0000 </r>
       <r>   -5.2988    1.0000 </r>
       <r>   -5.2988    1.0000 </r>
       <r>   -5.2987    1.0000 </r>
       <r>   -5.2107    1.0000 </r>
       <r>   -5.2107    1.0000 </r>
       <r>   -5.1910    1.0000 </r>
       <r>   -5.1910    1.0000 </r>
       <r>   -5.1910    1.0000 </r>
       <r>   -5.1910    1.0000 </r>
       <r>   -5.1711    1.0000 </r>
       <r>   -5.1711    1.0000 </r>
       <r>   -1.9683    1.0000 </r>
       <r>   -1.9677    1.0000 </r>
       <r>   -1.9675    1.0000 </r>
       <r>   -1.9670    1.0000 </r>
       <r>   -1.9636    1.0000 </r>
       <r>   -1.9635    1.0000 </r>
       <r>   -1.9029    1.0000 </r>
       <r>   -1.9028    1.0000 </r>
       <r>   -1.8306    1.0000 </r>
[...]
      </set>
     </set>
    </set>
   </array>
  </eigenvalues>
  <separator name="orbital magnetization" >
   <v name="MAGDIPOLOUT">      0.00000000      0.00000000      0.00000000</v>
  </separator>
  <dos>
   <i name="efermi">      2.50470226 </i>
   <total>
    <array>
     <dimension dim="1">gridpoints</dimension>
     <dimension dim="2">spin</dimension>
     <field>energy</field>
     <field>total</field>
     <field>integrated</field>
     <set>
      <set comment="spin 1">
       <r>    -9.7147     0.0000     0.0000 </r>
       <r>    -9.6514     0.0000     0.0000 </r>
       <r>    -9.5881     0.0000     0.0000 </r>
       <r>    -9.5248     0.0000     0.0000 </r>
       <r>    -9.4615     0.0000     0.0000 </r>
       <r>    -9.3982     0.0000     0.0000 </r>
       <r>    -9.3349     0.0000     0.0000 </r>
       <r>    -9.2716     0.0000     0.0000 </r>
       <r>    -9.2083     0.0000     0.0000 </r>
       <r>    -9.1451     0.0000     0.0000 </r>
       <r>    -9.0818     0.0000     0.0000 </r>
       <r>    -9.0185     0.0000     0.0000 </r>
       <r>    -8.9552     0.0023     0.0001 </r>
       <r>    -8.8919     0.2800     0.0179 </r>
       <r>    -8.8286     4.7843     0.3207 </r>
       <r>    -8.7653    17.3758     1.4204 </r>
       <r>    -8.7020    30.5009     3.3509 </r>
       <r>    -8.6387    46.4438     6.2904 </r>
       <r>    -8.5754    66.1876    10.4796 </r>
       <r>    -8.5121   108.7452    17.3624 </r>
       <r>    -8.4488   187.2399    29.2132 </r>
       <r>    -8.3855   284.2344    47.2031 </r>
       <r>    -8.3223   224.4164    61.4069 </r>
       <r>    -8.2590    40.2070    63.9517 </r>
       <r>    -8.1957     0.7613    63.9999 </r>
       <r>    -8.1324     0.0010    64.0000 </r>
       <r>    -8.0691     0.0000    64.0000 </r>
       <r>    -8.0058     0.0000    64.0000 </r>
       <r>    -7.9425     0.0000    64.0000 </r>
       <r>    -7.8792     0.0000    64.0000 </r>
       <r>    -7.8159     0.0000    64.0000 </r>
       <r>    -7.7526     0.0000    64.0000 </r>
       <r>    -7.6893     0.0000    64.0000 </r>
       <r>    -7.6260     0.0000    64.0000 </r>
       <r>    -7.5627     0.0000    64.0000 </r>
       <r>    -7.4995     0.0000    64.0000 </r>
       <r>    -7.4362     0.0000    64.0000 </r>
       <r>    -7.3729     0.0000    64.0000 </r>
       <r>    -7.3096     0.0000    64.0000 </r>
       <r>    -7.2463     0.0000    64.0000 </r>
       <r>    -7.1830     0.0000    64.0000 </r>
       <r>    -7.1197     0.0000    64.0000 </r>
       <r>    -7.0564     0.0000    64.0000 </r>
       <r>    -6.9931     0.0000    64.0000 </r>
       <r>    -6.9298     0.0000    64.0000 </r>
       <r>    -6.8665     0.0000    64.0000 </r>
       <r>    -6.8032     0.0000    64.0000 </r>
       <r>    -6.7399     0.0000    64.0000 </r>
       <r>    -6.6766     0.0000    64.0000 </r>
       <r>    -6.6134     0.0000    64.0000 </r>
       <r>    -6.5501     0.0000    64.0000 </r>
       <r>    -6.4868     0.0000    64.0000 </r>
       <r>    -6.4235     0.0000    64.0000 </r>
       <r>    -6.3602     0.0000    64.0000 </r>
       <r>    -6.2969     0.0000    64.0000 </r>
       <r>    -6.2336     0.0000    64.0000 </r>
       <r>    -6.1703     0.0000    64.0000 </r>
       <r>    -6.1070     0.0009    64.0001 </r>
       <r>    -6.0437     0.6497    64.0412 </r>
       <r>    -5.9804    42.3432    66.7212 </r>
       <r>    -5.9171   435.1153    94.2607 </r>
       <r>    -5.8538  1027.5644   159.2977 </r>
       <r>    -5.7906   708.7549   204.1565 </r>
       <r>    -5.7273   840.0400   257.3246 </r>
       <r>    -5.6640   984.7295   319.6505 </r>
       <r>    -5.6007   215.7656   333.3068 </r>
       <r>    -5.5374    67.1790   337.5587 </r>
       <r>    -5.4741    70.7439   342.0363 </r>
       <r>    -5.4108    94.9283   348.0445 </r>
       <r>    -5.3475   117.5684   355.4857 </r>
       <r>    -5.2842   143.1774   364.5477 </r>
       <r>    -5.2209   163.0800   374.8695 </r>
       <r>    -5.1576   117.4682   382.3043 </r>
       <r>    -5.0943    25.8676   383.9415 </r>
       <r>    -5.0310     0.9208   383.9998 </r>
       <r>    -4.9678     0.0033   384.0000 </r>
       <r>    -4.9045     0.0000   384.0000 </r>
       <r>    -4.8412     0.0000   384.0000 </r>
       <r>    -4.7779     0.0000   384.0000 </r>
       <r>    -4.7146     0.0000   384.0000 </r>
       <r>    -4.6513     0.0000   384.0000 </r>
       <r>    -4.5880     0.0000   384.0000 </r>
       <r>    -4.5247     0.0000   384.0000 </r>
       <r>    -4.4614     0.0000   384.0000 </r>
       <r>    -4.3981     0.0000   384.0000 </r>
       <r>    -4.3348     0.0000   384.0000 </r>
       <r>    -4.2715     0.0000   384.0000 </r>
       <r>    -4.2082     0.0000   384.0000 </r>
       <r>    -4.1450     0.0000   384.0000 </r>
       <r>    -4.0817     0.0000   384.0000 </r>
       <r>    -4.0184     0.0000   384.0000 </r>
       <r>    -3.9551     0.0000   384.0000 </r>
       <r>    -3.8918     0.0000   384.0000 </r>
       <r>    -3.8285     0.0000   384.0000 </r>
       <r>    -3.7652     0.0000   384.0000 </r>
       <r>    -3.7019     0.0000   384.0000 </r>
       <r>    -3.6386     0.0000   384.0000 </r>
       <r>    -3.5753     0.0000   384.0000 </r>
       <r>    -3.5120     0.0000   384.0000 </r>
       <r>    -3.4487     0.0000   384.0000 </r>
       <r>    -3.3854     0.0000   384.0000 </r>
       <r>    -3.3222     0.0000   384.0000 </r>
       <r>    -3.2589     0.0000   384.0000 </r>
       <r>    -3.1956     0.0000   384.0000 </r>
       <r>    -3.1323     0.0000   384.0000 </r>
       <r>    -3.0690     0.0000   384.0000 </r>
       <r>    -3.0057     0.0000   384.0000 </r>
       <r>    -2.9424     0.0000   384.0000 </r>
       <r>    -2.8791     0.0000   384.0000 </r>
       <r>    -2.8158     0.0000   384.0000 </r>
       <r>    -2.7525     0.0000   384.0000 </r>
       <r>    -2.6892     0.0000   384.0000 </r>
       <r>    -2.6259     0.0000   384.0000 </r>
       <r>    -2.5626     0.0000   384.0000 </r>
       <r>    -2.4994     0.0000   384.0000 </r>
       <r>    -2.4361     0.0000   384.0000 </r>
       <r>    -2.3728     0.0000   384.0000 </r>
       <r>    -2.3095     0.0000   384.0000 </r>
       <r>    -2.2462     0.0001   384.0000 </r>
       <r>    -2.1829     0.0529   384.0034 </r>
       <r>    -2.1196     1.4285   384.0938 </r>
       <r>    -2.0563     5.2946   384.4289 </r>
       <r>    -1.9930    28.3477   386.2231 </r>
       <r>    -1.9297    59.9459   390.0172 </r>
       <r>    -1.8664   110.7582   397.0273 </r>
       <r>    -1.8031   162.7094   407.3256 </r>
       <r>    -1.7398    93.7459   413.2590 </r>
       <r>    -1.6766    53.4772   416.6437 </r>
       <r>    -1.6133    72.7020   421.2452 </r>
       <r>    -1.5500    23.4210   422.7276 </r>
       <r>    -1.4867    10.6911   423.4042 </r>
       <r>    -1.4234    23.4678   424.8896 </r>
       <r>    -1.3601    28.4654   426.6912 </r>
       <r>    -1.2968    24.9346   428.2694 </r>
       <r>    -1.2335    59.3238   432.0241 </r>
       <r>    -1.1702    20.5563   433.3252 </r>
       <r>    -1.1069     3.4658   433.5445 </r>
       <r>    -1.0436     3.5598   433.7698 </r>
       <r>    -0.9803    17.1655   434.8563 </r>
       <r>    -0.9170     7.4255   435.3263 </r>
       <r>    -0.8538     5.6216   435.6821 </r>
       <r>    -0.7905    20.0983   436.9541 </r>
       <r>    -0.7272    21.1418   438.2922 </r>
       <r>    -0.6639     9.3551   438.8844 </r>
       <r>    -0.6006     8.5763   439.4272 </r>
       <r>    -0.5373    16.7420   440.4868 </r>
       <r>    -0.4740     3.6836   440.7199 </r>
       <r>    -0.4107     8.4951   441.2576 </r>
       <r>    -0.3474    10.7814   441.9400 </r>
       <r>    -0.2841    10.3739   442.5966 </r>
       <r>    -0.2208    18.3575   443.7585 </r>
       <r>    -0.1575    49.6449   446.9006 </r>
       <r>    -0.0942    50.8347   450.1181 </r>
       <r>    -0.0309    58.0520   453.7923 </r>
       <r>     0.0323    67.4241   458.0598 </r>
       <r>     0.0956    39.4314   460.5555 </r>
       <r>     0.1589    61.9366   464.4756 </r>
       <r>     0.2222    88.7462   470.0925 </r>
       <r>     0.2855    33.6222   472.2206 </r>
       <r>     0.3488    24.6376   473.7799 </r>
       <r>     0.4121    59.3191   477.5344 </r>
       <r>     0.4754    62.0949   481.4645 </r>
       <r>     0.5387    86.1776   486.9189 </r>
       <r>     0.6020    98.0287   493.1234 </r>
       <r>     0.6653    89.0749   498.7611 </r>
       <r>     0.7286    87.1917   504.2797 </r>
       <r>     0.7919    52.9386   507.6303 </r>
       <r>     0.8551    30.4156   509.5554 </r>
       <r>     0.9184    63.6442   513.5836 </r>
       <r>     0.9817    63.9296   517.6298 </r>
       <r>     1.0450    99.5466   523.9304 </r>
       <r>     1.1083    85.6952   529.3542 </r>
       <r>     1.1716    77.1932   534.2400 </r>
       <r>     1.2349    62.0859   538.1695 </r>
       <r>     1.2982    43.6630   540.9331 </r>
       <r>     1.3615    62.5870   544.8944 </r>
       <r>     1.4248    51.1780   548.1335 </r>
       <r>     1.4881    69.8596   552.5551 </r>
       <r>     1.5514   110.7373   559.5639 </r>
       <r>     1.6147    35.4226   561.8059 </r>
       <r>     1.6779    22.1721   563.2093 </r>
       <r>     1.7412    37.8521   565.6050 </r>
       <r>     1.8045    23.8811   567.1165 </r>
       <r>     1.8678    28.3630   568.9117 </r>
       <r>     1.9311    43.8757   571.6887 </r>
       <r>     1.9944    17.3722   572.7882 </r>
       <r>     2.0577    10.9105   573.4787 </r>
       <r>     2.1210    17.0611   574.5586 </r>
       <r>     2.1843     9.0570   575.1318 </r>
       <r>     2.2476     9.2139   575.7150 </r>
       <r>     2.3109     3.7334   575.9513 </r>
       <r>     2.3742     0.7527   575.9989 </r>
       <r>     2.4375     0.0172   576.0000 </r>
       <r>     2.5007     0.0000   576.0000 </r>
       <r>     2.5640     0.0000   576.0000 </r>
       <r>     2.6273     0.0000   576.0000 </r>
       <r>     2.6906     0.0000   576.0000 </r>
       <r>     2.7539     0.0000   576.0000 </r>
       <r>     2.8172     0.0000   576.0000 </r>
       <r>     2.8805     0.0000   576.0000 </r>
       <r>     2.9438     0.0093   576.0006 </r>
       <r>     3.0071     0.3041   576.0198 </r>
       <r>     3.0704     0.7155   576.0651 </r>
       <r>     3.1337     0.1396   576.0740 </r>
       <r>     3.1970     0.0018   576.0741 </r>
       <r>     3.2603     0.0000   576.0741 </r>
       <r>     3.3235     0.0000   576.0741 </r>
       <r>     3.3868     0.0000   576.0741 </r>
       <r>     3.4501     0.0000   576.0741 </r>
       <r>     3.5134     0.0000   576.0741 </r>
       <r>     3.5767     0.0000   576.0741 </r>
       <r>     3.6400     0.0000   576.0741 </r>
       <r>     3.7033     0.0131   576.0749 </r>
       <r>     3.7666     0.9249   576.1334 </r>
       <r>     3.8299     4.3420   576.4083 </r>
       <r>     3.8932     1.6947   576.5155 </r>
       <r>     3.9565     0.0564   576.5191 </r>
       <r>     4.0198     1.1650   576.5928 </r>
       <r>     4.0831    10.9050   577.2830 </r>
       <r>     4.1463    13.7545   578.1536 </r>
       <r>     4.2096     7.8366   578.6496 </r>
       <r>     4.2729     3.5928   578.8770 </r>
       <r>     4.3362     0.1993   578.8896 </r>
       <r>     4.3995     1.7683   579.0015 </r>
       <r>     4.4628    20.0710   580.2718 </r>
       <r>     4.5261    34.3087   582.4433 </r>
       <r>     4.5894    39.0706   584.9162 </r>
       <r>     4.6527    16.5721   585.9651 </r>
       <r>     4.7160     5.2994   586.3005 </r>
       <r>     4.7793    21.7515   587.6772 </r>
       <r>     4.8426     9.7016   588.2912 </r>
       <r>     4.9059    16.1236   589.3117 </r>
       <r>     4.9691    41.1356   591.9153 </r>
       <r>     5.0324    60.6399   595.7534 </r>
       <r>     5.0957    64.0610   599.8079 </r>
       <r>     5.1590    58.7723   603.5278 </r>
       <r>     5.2223    47.2930   606.5211 </r>
       <r>     5.2856    62.5097   610.4775 </r>
       <r>     5.3489    71.7731   615.0201 </r>
       <r>     5.4122    84.2161   620.3504 </r>
       <r>     5.4755   127.3914   628.4133 </r>
       <r>     5.5388    74.4557   633.1258 </r>
       <r>     5.6021    10.0939   633.7646 </r>
       <r>     5.6654    28.1339   635.5453 </r>
       <r>     5.7287    29.1452   637.3900 </r>
       <r>     5.7920     7.5983   637.8709 </r>
       <r>     5.8552    20.1370   639.1454 </r>
       <r>     5.9185    33.4693   641.2637 </r>
       <r>     5.9818    68.7346   645.6141 </r>
       <r>     6.0451    46.3615   648.5485 </r>
       <r>     6.1084    18.3921   649.7125 </r>
       <r>     6.1717    43.4262   652.4611 </r>
       <r>     6.2350    34.9233   654.6715 </r>
       <r>     6.2983    12.9159   655.4889 </r>
       <r>     6.3616    35.4785   657.7345 </r>
       <r>     6.4249    20.1342   659.0088 </r>
       <r>     6.4882    18.5205   660.1810 </r>
       <r>     6.5515     8.6675   660.7296 </r>
       <r>     6.6148     5.3295   661.0669 </r>
       <r>     6.6780     8.5091   661.6055 </r>
       <r>     6.7413    46.2854   664.5350 </r>
       <r>     6.8046   104.4191   671.1439 </r>
       <r>     6.8679    52.2920   674.4536 </r>
       <r>     6.9312    27.3578   676.1851 </r>
       <r>     6.9945    92.8832   682.0639 </r>
       <r>     7.0578   104.0033   688.6466 </r>
       <r>     7.1211    32.4903   690.7029 </r>
       <r>     7.1844    47.1279   693.6858 </r>
       <r>     7.2477    62.7494   697.6573 </r>
       <r>     7.3110    35.5757   699.9090 </r>
       <r>     7.3743    60.1767   703.7177 </r>
       <r>     7.4376    58.0502   707.3919 </r>
       <r>     7.5008    45.4965   710.2714 </r>
       <r>     7.5641    31.4422   712.2615 </r>
       <r>     7.6274    59.7811   716.0452 </r>
       <r>     7.6907    56.2791   719.6072 </r>
       <r>     7.7540    85.9241   725.0456 </r>
       <r>     7.8173    73.6046   729.7042 </r>
       <r>     7.8806    75.1873   734.4630 </r>
       <r>     7.9439   105.9721   741.1702 </r>
       <r>     8.0072    76.3304   746.0013 </r>
       <r>     8.0705    49.4082   749.1285 </r>
       <r>     8.1338    35.9173   751.4018 </r>
       <r>     8.1971    64.3942   755.4774 </r>
       <r>     8.2604    46.3288   758.4097 </r>
       <r>     8.3236    61.6438   762.3113 </r>
       <r>     8.3869    56.1860   765.8674 </r>
       <r>     8.4502    29.4973   767.7344 </r>
       <r>     8.5135     4.1487   767.9970 </r>
       <r>     8.5768     0.0480   768.0000 </r>
       <r>     8.6401     0.0000   768.0000 </r>
       <r>     8.7034     0.0000   768.0000 </r>
       <r>     8.7667     0.0000   768.0000 </r>
       <r>     8.8300     0.0000   768.0000 </r>
       <r>     8.8933     0.0000   768.0000 </r>
       <r>     8.9566     0.0000   768.0000 </r>
       <r>     9.0199     0.0000   768.0000 </r>
       <r>     9.0832     0.0000   768.0000 </r>
       <r>     9.1464     0.0000   768.0000 </r>
       <r>     9.2097     0.0000   768.0000 </r>
       <r>     9.2730     0.0000   768.0000 </r>
      </set>
     </set>
    </array>
   </total>
  </dos>
 </calculation>
 <structure name="finalpos" >
  <crystal>
   <varray name="basis" >
    <v>      12.99297215       0.00000000       0.00000000 </v>
    <v>       0.00000000      12.99297215       0.00000000 </v>
    <v>       0.00000000       0.00000000      12.99297215 </v>
   </varray>
   <i name="volume">   2193.43880629 </i>
   <varray name="rec_basis" >
    <v>       0.07696468       0.00000000       0.00000000 </v>
    <v>       0.00000000       0.07696468       0.00000000 </v>
    <v>       0.00000000       0.00000000       0.07696468 </v>
   </varray>
  </crystal>
  <varray name="positions" >
   <v>       0.00000000       0.00000000       0.00000000 </v>
   <v>       0.50000000       0.00000000       0.00000000 </v>
   <v>       0.00000000       0.50000000       0.00000000 </v>
   <v>       0.50000000       0.50000000       0.00000000 </v>
   <v>       0.00000000       0.00000000       0.50000000 </v>
   <v>       0.50000000       0.00000000       0.50000000 </v>
   <v>       0.00000000       0.50000000       0.50000000 </v>
   <v>       0.50000000       0.50000000       0.50000000 </v>
   <v>       0.00000000       0.25000000       0.25000000 </v>
   <v>       0.50000000       0.25000000       0.25000000 </v>
   <v>       0.00000000       0.75000000       0.25000000 </v>
   <v>       0.50000000       0.75000000       0.25000000 </v>
   <v>       0.00000000       0.25000000       0.75000000 </v>
   <v>       0.50000000       0.25000000       0.75000000 </v>
   <v>       0.00000000       0.75000000       0.75000000 </v>
   <v>       0.50000000       0.75000000       0.75000000 </v>
   <v>       0.25000000       0.00000000       0.25000000 </v>
   <v>       0.75000000       0.00000000       0.25000000 </v>
   <v>       0.25000000       0.50000000       0.25000000 </v>
   <v>       0.75000000       0.50000000       0.25000000 </v>
   <v>       0.25000000       0.00000000       0.75000000 </v>
   <v>       0.75000000       0.00000000       0.75000000 </v>
   <v>       0.25000000       0.50000000       0.75000000 </v>
   <v>       0.75000000       0.50000000       0.75000000 </v>
   <v>       0.25000000       0.25000000       0.00000000 </v>
   <v>       0.75000000       0.25000000       0.00000000 </v>
   <v>       0.25000000       0.75000000       0.00000000 </v>
   <v>       0.75000000       0.75000000       0.00000000 </v>
   <v>       0.25000000       0.25000000       0.50000000 </v>
   <v>       0.75000000       0.25000000       0.50000000 </v>
   <v>       0.25000000       0.75000000       0.50000000 </v>
   <v>       0.75000000       0.75000000       0.50000000 </v>
   <v>       0.12576965       0.12500000       0.12500000 </v>
   <v>       0.62500000       0.12500000       0.12500000 </v>
   <v>       0.12500000       0.62500000       0.12500000 </v>
   <v>       0.62500000       0.62500000       0.12500000 </v>
   <v>       0.12500000       0.12500000       0.62500000 </v>
   <v>       0.62500000       0.12500000       0.62500000 </v>
   <v>       0.12500000       0.62500000       0.62500000 </v>
   <v>       0.62500000       0.62500000       0.62500000 </v>
   <v>       0.12500000       0.37500000       0.37500000 </v>
   <v>       0.62500000       0.37500000       0.37500000 </v>
   <v>       0.12500000       0.87500000       0.37500000 </v>
   <v>       0.62500000       0.87500000       0.37500000 </v>
   <v>       0.12500000       0.37500000       0.87500000 </v>
   <v>       0.62500000       0.37500000       0.87500000 </v>
   <v>       0.12500000       0.87500000       0.87500000 </v>
   <v>       0.62500000       0.87500000       0.87500000 </v>
   <v>       0.37500000       0.12500000       0.37500000 </v>
   <v>       0.87500000       0.12500000       0.37500000 </v>
   <v>       0.37500000       0.62500000       0.37500000 </v>
   <v>       0.87500000       0.62500000       0.37500000 </v>
   <v>       0.37500000       0.12500000       0.87500000 </v>
   <v>       0.87500000       0.12500000       0.87500000 </v>
   <v>       0.37500000       0.62500000       0.87500000 </v>
   <v>       0.87500000       0.62500000       0.87500000 </v>
   <v>       0.37500000       0.37500000       0.12500000 </v>
   <v>       0.87500000       0.37500000       0.12500000 </v>
   <v>       0.37500000       0.87500000       0.12500000 </v>
   <v>       0.87500000       0.87500000       0.12500000 </v>
   <v>       0.37500000       0.37500000       0.62500000 </v>
   <v>       0.87500000       0.37500000       0.62500000 </v>
   <v>       0.37500000       0.87500000       0.62500000 </v>
   <v>       0.87500000       0.87500000       0.62500000 </v>
  </varray>
 </structure>
</modeling>
