<?xml version="1.0" encoding="ISO-8859-1"?>
<modeling>
 <generator>
  <i name="program" type="string">vasp </i>
  <i name="version" type="string">6.3.0  </i>
  <i name="subversion" type="string">20Jan22 (build Feb 10 2022 15:15:41) complex                          parallel </i>
  <i name="platform" type="string">LinuxIFC </i>
  <i name="date" type="string">2023 10 05 </i>
  <i name="time" type="string">11:28:23 </i>
 </generator>
 <incar>
  <i name="EDIFF">      0.00010000</i>
  <i name="ENCUT">    360.00000000</i>
  <i type="int" name="ISMEAR">     0</i>
  <i name="SIGMA">      0.05000000</i>
 </incar>
 <primitive_cell>
  <structure name="primitive_cell" >
   <crystal>
    <varray name="basis" >
     <v>      13.25813485       0.00000000       0.00000000 </v>
     <v>       0.00000000      13.25813485       0.00000000 </v>
     <v>       0.00000000       0.00000000      13.25813485 </v>
    </varray>
    <i name="volume">   2330.49027860 </i>
    <varray name="rec_basis" >
     <v>       0.07542539       0.00000000       0.00000000 </v>
     <v>       0.00000000       0.07542539       0.00000000 </v>
     <v>       0.00000000       0.00000000       0.07542539 </v>
    </varray>
   </crystal>
   <varray name="positions" >
    <v>       0.00000000       0.00000000       0.00000000 </v>
    <v>       0.50000000       0.00000000       0.00000000 </v>
    <v>       0.00000000       0.50000000       0.00000000 </v>
    <v>       0.50000000       0.50000000       0.00000000 </v>
    <v>       0.00000000       0.00000000       0.50000000 </v>
    <v>       0.50000000       0.00000000       0.50000000 </v>
    <v>       0.00000000       0.50000000       0.50000000 </v>
    <v>       0.50000000       0.50000000       0.50000000 </v>
    <v>       0.00000000       0.25000000       0.25000000 </v>
    <v>       0.50000000       0.25000000       0.25000000 </v>
    <v>       0.00000000       0.75000000       0.25000000 </v>
    <v>       0.50000000       0.75000000       0.25000000 </v>
    <v>       0.00000000       0.25000000       0.75000000 </v>
    <v>       0.50000000       0.25000000       0.75000000 </v>
    <v>       0.00000000       0.75000000       0.75000000 </v>
    <v>       0.50000000       0.75000000       0.75000000 </v>
    <v>       0.25000000       0.00000000       0.25000000 </v>
    <v>       0.75000000       0.00000000       0.25000000 </v>
    <v>       0.25000000       0.50000000       0.25000000 </v>
    <v>       0.75000000       0.50000000       0.25000000 </v>
    <v>       0.25000000       0.00000000       0.75000000 </v>
    <v>       0.75000000       0.00000000       0.75000000 </v>
    <v>       0.25000000       0.50000000       0.75000000 </v>
    <v>       0.75000000       0.50000000       0.75000000 </v>
    <v>       0.25000000       0.25000000       0.00000000 </v>
    <v>       0.75000000       0.25000000       0.00000000 </v>
    <v>       0.25000000       0.75000000       0.00000000 </v>
    <v>       0.75000000       0.75000000       0.00000000 </v>
    <v>       0.25000000       0.25000000       0.50000000 </v>
    <v>       0.75000000       0.25000000       0.50000000 </v>
    <v>       0.25000000       0.75000000       0.50000000 </v>
    <v>       0.75000000       0.75000000       0.50000000 </v>
    <v>       0.12575425       0.12500000       0.12500000 </v>
    <v>       0.62500000       0.12500000       0.12500000 </v>
    <v>       0.12500000       0.62500000       0.12500000 </v>
    <v>       0.62500000       0.62500000       0.12500000 </v>
    <v>       0.12500000       0.12500000       0.62500000 </v>
    <v>       0.62500000       0.12500000       0.62500000 </v>
    <v>       0.12500000       0.62500000       0.62500000 </v>
    <v>       0.62500000       0.62500000       0.62500000 </v>
    <v>       0.12500000       0.37500000       0.37500000 </v>
    <v>       0.62500000       0.37500000       0.37500000 </v>
    <v>       0.12500000       0.87500000       0.37500000 </v>
    <v>       0.62500000       0.87500000       0.37500000 </v>
    <v>       0.12500000       0.37500000       0.87500000 </v>
    <v>       0.62500000       0.37500000       0.87500000 </v>
    <v>       0.12500000       0.87500000       0.87500000 </v>
    <v>       0.62500000       0.87500000       0.87500000 </v>
    <v>       0.37500000       0.12500000       0.37500000 </v>
    <v>       0.87500000       0.12500000       0.37500000 </v>
    <v>       0.37500000       0.62500000       0.37500000 </v>
    <v>       0.87500000       0.62500000       0.37500000 </v>
    <v>       0.37500000       0.12500000       0.87500000 </v>
    <v>       0.87500000       0.12500000       0.87500000 </v>
    <v>       0.37500000       0.62500000       0.87500000 </v>
    <v>       0.87500000       0.62500000       0.87500000 </v>
    <v>       0.37500000       0.37500000       0.12500000 </v>
    <v>       0.87500000       0.37500000       0.12500000 </v>
    <v>       0.37500000       0.87500000       0.12500000 </v>
    <v>       0.87500000       0.87500000       0.12500000 </v>
    <v>       0.37500000       0.37500000       0.62500000 </v>
    <v>       0.87500000       0.37500000       0.62500000 </v>
    <v>       0.37500000       0.87500000       0.62500000 </v>
    <v>       0.87500000       0.87500000       0.62500000 </v>
   </varray>
  </structure>
  <varray name="primitive_index" >
   <v type="int" >        1 </v>
   <v type="int" >        2 </v>
   <v type="int" >        3 </v>
   <v type="int" >        4 </v>
   <v type="int" >        5 </v>
   <v type="int" >        6 </v>
   <v type="int" >        7 </v>
   <v type="int" >        8 </v>
   <v type="int" >        9 </v>
   <v type="int" >       10 </v>
   <v type="int" >       11 </v>
   <v type="int" >       12 </v>
   <v type="int" >       13 </v>
   <v type="int" >       14 </v>
   <v type="int" >       15 </v>
   <v type="int" >       16 </v>
   <v type="int" >       17 </v>
   <v type="int" >       18 </v>
   <v type="int" >       19 </v>
   <v type="int" >       20 </v>
   <v type="int" >       21 </v>
   <v type="int" >       22 </v>
   <v type="int" >       23 </v>
   <v type="int" >       24 </v>
   <v type="int" >       25 </v>
   <v type="int" >       26 </v>
   <v type="int" >       27 </v>
   <v type="int" >       28 </v>
   <v type="int" >       29 </v>
   <v type="int" >       30 </v>
   <v type="int" >       31 </v>
   <v type="int" >       32 </v>
   <v type="int" >       33 </v>
   <v type="int" >       34 </v>
   <v type="int" >       35 </v>
   <v type="int" >       36 </v>
   <v type="int" >       37 </v>
   <v type="int" >       38 </v>
   <v type="int" >       39 </v>
   <v type="int" >       40 </v>
   <v type="int" >       41 </v>
   <v type="int" >       42 </v>
   <v type="int" >       43 </v>
   <v type="int" >       44 </v>
   <v type="int" >       45 </v>
   <v type="int" >       46 </v>
   <v type="int" >       47 </v>
   <v type="int" >       48 </v>
   <v type="int" >       49 </v>
   <v type="int" >       50 </v>
   <v type="int" >       51 </v>
   <v type="int" >       52 </v>
   <v type="int" >       53 </v>
   <v type="int" >       54 </v>
   <v type="int" >       55 </v>
   <v type="int" >       56 </v>
   <v type="int" >       57 </v>
   <v type="int" >       58 </v>
   <v type="int" >       59 </v>
   <v type="int" >       60 </v>
   <v type="int" >       61 </v>
   <v type="int" >       62 </v>
   <v type="int" >       63 </v>
   <v type="int" >       64 </v>
  </varray>
 </primitive_cell>
 <kpoints>
  <generation param="Gamma">
   <v type="int" name="divisions">       3        3        3 </v>
   <v name="usershift">      0.00000000       0.00000000       0.00000000 </v>
   <v name="genvec1">      0.33333333       0.00000000       0.00000000 </v>
   <v name="genvec2">      0.00000000       0.33333333       0.00000000 </v>
   <v name="genvec3">      0.00000000       0.00000000       0.33333333 </v>
   <v name="shift">      0.00000000       0.00000000       0.00000000 </v>
  </generation>
  <varray name="kpointlist" >
   <v>       0.00000000       0.00000000       0.00000000 </v>
   <v>       0.33333333       0.00000000       0.00000000 </v>
   <v>       0.00000000       0.33333333       0.00000000 </v>
   <v>       0.33333333       0.33333333       0.00000000 </v>
   <v>       0.00000000       0.33333333       0.33333333 </v>
   <v>       0.00000000      -0.33333333       0.33333333 </v>
   <v>       0.33333333       0.33333333       0.33333333 </v>
   <v>      -0.33333333      -0.33333333       0.33333333 </v>
  </varray>
  <varray name="weights" >
   <v>       0.03703704 </v>
   <v>       0.07407407 </v>
   <v>       0.14814815 </v>
   <v>       0.29629630 </v>
   <v>       0.07407407 </v>
   <v>       0.07407407 </v>
   <v>       0.14814815 </v>
   <v>       0.14814815 </v>
  </varray>
 </kpoints>
 <parameters>
  <separator name="general" >
   <i type="string" name="SYSTEM">unknown system</i>
   <i type="logical" name="LCOMPAT"> F  </i>
  </separator>
  <separator name="electronic" >
   <i type="string" name="PREC">normal</i>
   <i name="ENMAX">    360.00000000</i>
   <i name="ENAUG">    456.10600000</i>
   <i name="EDIFF">      0.00010000</i>
   <i type="int" name="IALGO">    38</i>
   <i type="int" name="IWAVPR">    10</i>
   <i type="int" name="NBANDS">   384</i>
   <i type="int" name="NBANDSLOW">    -1</i>
   <i type="int" name="NBANDSHIGH">    -1</i>
   <i name="NELECT">    576.00000000</i>
   <i type="int" name="TURBO">     0</i>
   <i type="int" name="IRESTART">     0</i>
   <i type="int" name="NREBOOT">     0</i>
   <i type="int" name="NMIN">     0</i>
   <i name="EREF">      0.00000000</i>
   <separator name="electronic smearing" >
    <i type="int" name="ISMEAR">     0</i>
    <i name="SIGMA">      0.05000000</i>
    <i name="KSPACING">      0.50000000</i>
    <i type="logical" name="KGAMMA"> T  </i>
    <i type="logical" name="KBLOWUP"> T  </i>
   </separator>
   <separator name="electronic projectors" >
    <i type="logical" name="LREAL"> F  </i>
    <v name="ROPT">      0.00000000      0.00000000</v>
    <i type="int" name="LMAXPAW">  -100</i>
    <i type="int" name="LMAXMIX">     2</i>
    <i type="logical" name="NLSPLINE"> F  </i>
   </separator>
   <separator name="electronic startup" >
    <i type="int" name="ISTART">     0</i>
    <i type="int" name="ICHARG">     2</i>
    <i type="int" name="INIWAV">     1</i>
   </separator>
   <separator name="electronic spin" >
    <i type="int" name="ISPIN">     1</i>
    <i type="logical" name="LNONCOLLINEAR"> F  </i>
    <v name="MAGMOM">      1.00000000      1.00000000      1.00000000      1.00000000      1.00000000      1.00000000      1.00000000      1.00000000      1.00000000      1.00000000      1.00000000      1.00000000      1.00000000      1.00000000      1.00000000      1.00000000      1.00000000      1.00000000      1.00000000      1.00000000
      1.00000000      1.00000000      1.00000000      1.00000000      1.00000000      1.00000000      1.00000000      1.00000000      1.00000000      1.00000000      1.00000000      1.00000000      1.00000000      1.00000000      1.00000000      1.00000000      1.00000000      1.00000000      1.00000000      1.00000000
      1.00000000      1.00000000      1.00000000      1.00000000      1.00000000      1.00000000      1.00000000      1.00000000      1.00000000      1.00000000      1.00000000      1.00000000      1.00000000      1.00000000      1.00000000      1.00000000      1.00000000      1.00000000      1.00000000      1.00000000
      1.00000000      1.00000000      1.00000000      1.00000000</v>
    <i name="NUPDOWN">     -1.00000000</i>
    <i type="logical" name="LSORBIT"> F  </i>
    <v name="SAXIS">      0.00000000      0.00000000      1.00000000</v>
    <i type="logical" name="LSPIRAL"> F  </i>
    <v name="QSPIRAL">      0.00000000      0.00000000      0.00000000</v>
    <i type="logical" name="LZEROZ"> F  </i>
   </separator>
   <separator name="electronic exchange-correlation" >
    <i type="logical" name="LASPH"> F  </i>
    <i type="logical" name="LMETAGGA"> F  </i>
   </separator>
   <separator name="electronic convergence" >
    <i type="int" name="NELM">    60</i>
    <i type="int" name="NELMDL">    -5</i>
    <i type="int" name="NELMIN">     2</i>
    <i name="ENINI">    360.00000000</i>
    <separator name="electronic convergence detail" >
     <i type="logical" name="LDIAG"> T  </i>
     <i type="logical" name="LSUBROT"> F  </i>
     <i name="WEIMIN">      0.00000000</i>
     <i name="EBREAK">      0.00000007</i>
     <i name="DEPER">      0.30000000</i>
     <i type="int" name="NRMM">     4</i>
     <i name="TIME">      0.40000000</i>
    </separator>
   </separator>
   <separator name="electronic mixer" >
    <i name="AMIX">      0.40000000</i>
    <i name="BMIX">      1.00000000</i>
    <i name="AMIN">      0.10000000</i>
    <i name="AMIX_MAG">      1.60000000</i>
    <i name="BMIX_MAG">      1.00000000</i>
    <separator name="electronic mixer details" >
     <i type="int" name="IMIX">     4</i>
     <i type="logical" name="MIXFIRST"> F  </i>
     <i type="int" name="MAXMIX">   -45</i>
     <i name="WC">    100.00000000</i>
     <i type="int" name="INIMIX">     1</i>
     <i type="int" name="MIXPRE">     1</i>
     <i type="int" name="MREMOVE">     5</i>
    </separator>
   </separator>
   <separator name="electronic dipolcorrection" >
    <i type="logical" name="LDIPOL"> F  </i>
    <i type="logical" name="LMONO"> F  </i>
    <i type="int" name="IDIPOL">     0</i>
    <i name="EPSILON">      1.00000000</i>
    <v name="DIPOL">   -100.00000000   -100.00000000   -100.00000000</v>
    <i name="EFIELD">      0.00000000</i>
   </separator>
  </separator>
  <separator name="grids" >
   <i type="int" name="NGX">    64</i>
   <i type="int" name="NGY">    64</i>
   <i type="int" name="NGZ">    64</i>
   <i type="int" name="NGXF">   128</i>
   <i type="int" name="NGYF">   128</i>
   <i type="int" name="NGZF">   128</i>
   <i type="logical" name="ADDGRID"> F  </i>
  </separator>
  <separator name="ionic" >
   <i type="int" name="NSW">     0</i>
   <i type="int" name="IBRION">    -1</i>
   <i type="int" name="MDALGO">     0</i>
   <i type="int" name="ISIF">     2</i>
   <i name="PSTRESS">      0.00000000</i>
   <i name="EDIFFG">      0.00100000</i>
   <i type="int" name="NFREE">     0</i>
   <i name="POTIM">      0.50000000</i>
   <i name="SMASS">     -3.00000000</i>
   <i name="SCALEE">      1.00000000</i>
  </separator>
  <separator name="ionic md" >
   <i name="TEBEG">      0.00010000</i>
   <i name="TEEND">      0.00010000</i>
   <i type="int" name="NBLOCK">     1</i>
   <i type="int" name="KBLOCK">     1</i>
   <i type="int" name="NPACO">   256</i>
   <i name="APACO">     10.00000000</i>
  </separator>
  <separator name="symmetry" >
   <i type="int" name="ISYM">     2</i>
   <i name="SYMPREC">      0.00001000</i>
  </separator>
  <separator name="dos" >
   <i type="int" name="LORBIT">     0</i>
   <v name="RWIGS">     -1.00000000     -1.00000000</v>
   <i type="int" name="NEDOS">   301</i>
   <i name="EMIN">     10.00000000</i>
   <i name="EMAX">    -10.00000000</i>
   <i name="EFERMI">      0.00000000</i>
  </separator>
  <separator name="writing" >
   <i type="int" name="NWRITE">     2</i>
   <i type="logical" name="LWAVE"> T  </i>
   <i type="logical" name="LDOWNSAMPLE"> F  </i>
   <i type="logical" name="LCHARG"> T  </i>
   <i type="logical" name="LPARD"> F  </i>
   <i type="logical" name="LVTOT"> F  </i>
   <i type="logical" name="LVHAR"> F  </i>
   <i type="logical" name="LELF"> F  </i>
   <i type="logical" name="LOPTICS"> F  </i>
   <v name="STM">      0.00000000      0.00000000      0.00000000      0.00000000      0.00000000      0.00000000      0.00000000</v>
  </separator>
  <separator name="performance" >
   <i type="int" name="NPAR">    48</i>
   <i type="int" name="NSIM">     4</i>
   <i type="int" name="NBLK">    -1</i>
   <i type="logical" name="LPLANE"> T  </i>
   <i type="logical" name="LSCALAPACK"> T  </i>
   <i type="logical" name="LSCAAWARE"> F  </i>
   <i type="logical" name="LSCALU"> F  </i>
   <i type="logical" name="LASYNC"> F  </i>
   <i type="logical" name="LORBITALREAL"> F  </i>
  </separator>
  <separator name="miscellaneous" >
   <i type="int" name="IDIOT">     3</i>
   <i type="int" name="PHON_NSTRUCT">    -1</i>
   <i type="logical" name="LMUSIC"> F  </i>
   <v name="POMASS">    112.41100000    127.60000000</v>
   <v name="DARWINR">      0.00000000      0.00000000</v>
   <v name="DARWINV">      1.00000000      1.00000000</v>
   <i type="logical" name="LCORR"> T  </i>
  </separator>
  <i type="logical" name="GGA_COMPAT"> T  </i>
  <i type="logical" name="LBERRY"> F  </i>
  <i type="int" name="ICORELEVEL">     0</i>
  <i type="logical" name="LDAU"> F  </i>
  <i type="int" name="I_CONSTRAINED_M">     0</i>
  <separator name="electronic exchange-correlation" >
   <i type="string" name="GGA">--</i>
   <i type="int" name="VOSKOWN">     0</i>
   <i type="logical" name="LHFCALC"> F  </i>
   <i type="string" name="PRECFOCK"></i>
   <i type="logical" name="LSYMGRAD"> F  </i>
   <i type="logical" name="LHFONE"> F  </i>
   <i type="logical" name="LRHFCALC"> F  </i>
   <i type="logical" name="LTHOMAS"> F  </i>
   <i type="logical" name="LMODELHF"> F  </i>
   <i type="logical" name="LFOCKACE"> F  </i>
   <i name="ENCUT4O">     -1.00000000</i>
   <i type="int" name="EXXOEP">     0</i>
   <i type="int" name="FOURORBIT">     0</i>
   <i name="AEXX">      0.00000000</i>
   <i name="HFALPHA">      0.00000000</i>
   <i name="MCALPHA">      0.00000000</i>
   <i name="ALDAX">      1.00000000</i>
   <i name="AGGAX">      1.00000000</i>
   <i name="ALDAC">      1.00000000</i>
   <i name="AGGAC">      1.00000000</i>
   <i type="int" name="NKREDX">     1</i>
   <i type="int" name="NKREDY">     1</i>
   <i type="int" name="NKREDZ">     1</i>
   <i type="logical" name="SHIFTRED"> F  </i>
   <i type="logical" name="ODDONLY"> F  </i>
   <i type="logical" name="EVENONLY"> F  </i>
   <i type="int" name="LMAXFOCK">     0</i>
   <i type="int" name="NMAXFOCKAE">     0</i>
   <i type="logical" name="LFOCKAEDFT"> F  </i>
   <i name="HFSCREEN">      0.00000000</i>
   <i name="HFSCREENC">      0.00000000</i>
   <i type="int" name="NBANDSGWLOW">     0</i>
  </separator>
  <separator name="vdW DFT" >
   <i type="logical" name="LUSE_VDW"> F  </i>
   <i name="Zab_VDW">     -0.84910000</i>
   <i name="PARAM1">      0.12340000</i>
   <i name="PARAM2">      1.00000000</i>
   <i name="PARAM3">      0.00000000</i>
  </separator>
  <separator name="model GW" >
   <i type="int" name="MODEL_GW">     0</i>
   <i name="MODEL_EPS0">     21.84834636</i>
   <i name="MODEL_ALPHA">      1.00000000</i>
  </separator>
  <separator name="linear response parameters" >
   <i type="logical" name="LEPSILON"> F  </i>
   <i type="logical" name="LRPA"> F  </i>
   <i type="logical" name="LNABLA"> F  </i>
   <i type="logical" name="LVEL"> F  </i>
   <i name="CSHIFT">      0.10000000</i>
   <i name="OMEGAMAX">     -1.00000000</i>
   <i name="DEG_THRESHOLD">      0.00200000</i>
   <i name="RTIME">     -0.10000000</i>
   <i name="WPLASMAI">      0.00000000</i>
   <v name="DFIELD">      0.00000000      0.00000000      0.00000000</v>
   <v name="WPLASMA">      0.00000000      0.00000000      0.00000000      0.00000000      0.00000000      0.00000000      0.00000000      0.00000000      0.00000000</v>
  </separator>
  <separator name="orbital magnetization" >
   <i type="logical" name="NUCIND"> F  </i>
   <v name="MAGPOS">      0.00000000      0.00000000      0.00000000</v>
   <i type="logical" name="LNICSALL"> T  </i>
   <i type="logical" name="ORBITALMAG"> F  </i>
   <i type="logical" name="LMAGBLOCH"> F  </i>
   <i type="logical" name="LCHIMAG"> F  </i>
   <i type="logical" name="LGAUGE"> T  </i>
   <i type="int" name="MAGATOM">     0</i>
   <v name="MAGDIPOL">      0.00000000      0.00000000      0.00000000</v>
   <v name="AVECCONST">      0.00000000      0.00000000      0.00000000</v>
  </separator>
  <separator name="response functions" >
   <i type="logical" name="LFINITE_TEMPERATURE"> F  </i>
   <i type="logical" name="LADDER"> F  </i>
   <i type="logical" name="LRPAFORCE"> F  </i>
   <i type="logical" name="LFXC"> F  </i>
   <i type="logical" name="LHARTREE"> T  </i>
   <i type="int" name="IBSE">     0</i>
   <v type="int" name="KPOINT">    -1     0     0     0</v>
   <i type="logical" name="LTCTC"> F  </i>
   <i type="logical" name="LTCTE"> F  </i>
   <i type="logical" name="LTETE"> F  </i>
   <i type="logical" name="LTRIPLET"> F  </i>
   <i type="logical" name="LFXCEPS"> F  </i>
   <i type="logical" name="LFXHEG"> F  </i>
   <i type="int" name="NATURALO">     2</i>
   <i type="logical" name="LHOLEGF"> F  </i>
   <i type="logical" name="L2ORDER"> F  </i>
   <i type="logical" name="LDMP1"> F  </i>
   <i type="logical" name="LMP2LT"> F  </i>
   <i type="logical" name="LSMP2LT"> F  </i>
   <i type="logical" name="LGWLF"> F  </i>
   <i name="ENCUTGW">     -2.00000000</i>
   <i name="ENCUTGWSOFT">     -2.00000000</i>
   <i name="ENCUTLF">     -1.00000000</i>
   <i type="logical" name="LESF_SPLINES"> F  </i>
   <i type="int" name="LMAXMP2">    -1</i>
   <i name="SCISSOR">      0.00000000</i>
   <i type="int" name="NOMEGA">     0</i>
   <i type="int" name="NOMEGAR">     0</i>
   <i type="int" name="NBANDSGW">    -1</i>
   <i type="int" name="NBANDSO">    -1</i>
   <i type="int" name="NBANDSV">    -1</i>
   <i type="int" name="NELMGW">     1</i>
   <i type="int" name="NELMHF">     1</i>
   <i type="int" name="DIM">     3</i>
   <i type="int" name="IESPILON">     4</i>
   <i type="int" name="ANTIRES">     0</i>
   <i name="OMEGAMAX">    -30.00000000</i>
   <i name="OMEGAMIN">    -30.00000000</i>
   <i name="OMEGATL">   -200.00000000</i>
   <i type="int" name="OMEGAGRID">     0</i>
   <i name="CSHIFT">     -0.10000000</i>
   <i type="logical" name="LSELFENERGY"> F  </i>
   <i type="logical" name="LSPECTRAL"> F  </i>
   <i type="logical" name="LSPECTRALGW"> F  </i>
   <i type="logical" name="LSINGLES"> F  </i>
   <i type="logical" name="LFERMIGW"> F  </i>
   <i type="logical" name="ODDONLYGW"> F  </i>
   <i type="logical" name="EVENONLYGW"> F  </i>
   <i type="int" name="NKREDLFX">     1</i>
   <i type="int" name="NKREDLFY">     1</i>
   <i type="int" name="NKREDLFZ">     1</i>
   <i type="int" name="MAXMEM">  2800</i>
   <i type="int" name="TELESCOPE">     0</i>
   <i type="int" name="NTAUPAR">    -1</i>
   <i type="int" name="NOMEGAPAR">    -1</i>
   <i name="DAMP_NEWTON">      0.80000001</i>
   <i name="LAMBDA">      1.00000000</i>
  </separator>
  <separator name="External order field" >
   <i name="OFIELD_KAPPA">      0.00000000</i>
   <v name="OFIELD_K">      0.00000000      0.00000000      0.00000000</v>
   <i name="OFIELD_Q6_NEAR">      0.00000000</i>
   <i name="OFIELD_Q6_FAR">      0.00000000</i>
   <i name="OFIELD_A">      0.00000000</i>
  </separator>
  <separator name="optional k-points parameters" >
   <i type="int" name="KPOINTS_OPT_MODE">     1</i>
   <i type="logical" name="LKPOINTS_OPT"> F  </i>
  </separator>
 </parameters>
 <atominfo>
  <atoms>      64 </atoms>
  <types>       2 </types>
  <array name="atoms" >
   <dimension dim="1">ion</dimension>
   <field type="string">element</field>
   <field type="int">atomtype</field>
   <set>
    <rc><c>Cd</c><c>   1</c></rc>
    <rc><c>Cd</c><c>   1</c></rc>
    <rc><c>Cd</c><c>   1</c></rc>
    <rc><c>Cd</c><c>   1</c></rc>
    <rc><c>Cd</c><c>   1</c></rc>
    <rc><c>Cd</c><c>   1</c></rc>
    <rc><c>Cd</c><c>   1</c></rc>
    <rc><c>Cd</c><c>   1</c></rc>
    <rc><c>Cd</c><c>   1</c></rc>
    <rc><c>Cd</c><c>   1</c></rc>
    <rc><c>Cd</c><c>   1</c></rc>
    <rc><c>Cd</c><c>   1</c></rc>
    <rc><c>Cd</c><c>   1</c></rc>
    <rc><c>Cd</c><c>   1</c></rc>
    <rc><c>Cd</c><c>   1</c></rc>
    <rc><c>Cd</c><c>   1</c></rc>
    <rc><c>Cd</c><c>   1</c></rc>
    <rc><c>Cd</c><c>   1</c></rc>
    <rc><c>Cd</c><c>   1</c></rc>
    <rc><c>Cd</c><c>   1</c></rc>
    <rc><c>Cd</c><c>   1</c></rc>
    <rc><c>Cd</c><c>   1</c></rc>
    <rc><c>Cd</c><c>   1</c></rc>
    <rc><c>Cd</c><c>   1</c></rc>
    <rc><c>Cd</c><c>   1</c></rc>
    <rc><c>Cd</c><c>   1</c></rc>
    <rc><c>Cd</c><c>   1</c></rc>
    <rc><c>Cd</c><c>   1</c></rc>
    <rc><c>Cd</c><c>   1</c></rc>
    <rc><c>Cd</c><c>   1</c></rc>
    <rc><c>Cd</c><c>   1</c></rc>
    <rc><c>Cd</c><c>   1</c></rc>
    <rc><c>Te</c><c>   2</c></rc>
    <rc><c>Te</c><c>   2</c></rc>
    <rc><c>Te</c><c>   2</c></rc>
    <rc><c>Te</c><c>   2</c></rc>
    <rc><c>Te</c><c>   2</c></rc>
    <rc><c>Te</c><c>   2</c></rc>
    <rc><c>Te</c><c>   2</c></rc>
    <rc><c>Te</c><c>   2</c></rc>
    <rc><c>Te</c><c>   2</c></rc>
    <rc><c>Te</c><c>   2</c></rc>
    <rc><c>Te</c><c>   2</c></rc>
    <rc><c>Te</c><c>   2</c></rc>
    <rc><c>Te</c><c>   2</c></rc>
    <rc><c>Te</c><c>   2</c></rc>
    <rc><c>Te</c><c>   2</c></rc>
    <rc><c>Te</c><c>   2</c></rc>
    <rc><c>Te</c><c>   2</c></rc>
    <rc><c>Te</c><c>   2</c></rc>
    <rc><c>Te</c><c>   2</c></rc>
    <rc><c>Te</c><c>   2</c></rc>
    <rc><c>Te</c><c>   2</c></rc>
    <rc><c>Te</c><c>   2</c></rc>
    <rc><c>Te</c><c>   2</c></rc>
    <rc><c>Te</c><c>   2</c></rc>
    <rc><c>Te</c><c>   2</c></rc>
    <rc><c>Te</c><c>   2</c></rc>
    <rc><c>Te</c><c>   2</c></rc>
    <rc><c>Te</c><c>   2</c></rc>
    <rc><c>Te</c><c>   2</c></rc>
    <rc><c>Te</c><c>   2</c></rc>
    <rc><c>Te</c><c>   2</c></rc>
    <rc><c>Te</c><c>   2</c></rc>
   </set>
  </array>
  <array name="atomtypes" >
   <dimension dim="1">type</dimension>
   <field type="int">atomspertype</field>
   <field type="string">element</field>
   <field>mass</field>
   <field>valence</field>
   <field type="string">pseudopotential</field>
   <set>
    <rc><c>  32</c><c>Cd</c><c>    112.41100000</c><c>     12.00000000</c><c>  PAW_PBE Cd 06Sep2000                  </c></rc>
    <rc><c>  32</c><c>Te</c><c>    127.60000000</c><c>      6.00000000</c><c>  PAW_PBE Te 08Apr2002                  </c></rc>
   </set>
  </array>
 </atominfo>
 <structure name="initialpos" >
  <crystal>
   <varray name="basis" >
    <v>      13.25813485       0.00000000       0.00000000 </v>
    <v>       0.00000000      13.25813485       0.00000000 </v>
    <v>       0.00000000       0.00000000      13.25813485 </v>
   </varray>
   <i name="volume">   2330.49027860 </i>
   <varray name="rec_basis" >
    <v>       0.07542539       0.00000000       0.00000000 </v>
    <v>       0.00000000       0.07542539       0.00000000 </v>
    <v>       0.00000000       0.00000000       0.07542539 </v>
   </varray>
  </crystal>
  <varray name="positions" >
   <v>       0.00000000       0.00000000       0.00000000 </v>
   <v>       0.50000000       0.00000000       0.00000000 </v>
   <v>       0.00000000       0.50000000       0.00000000 </v>
   <v>       0.50000000       0.50000000       0.00000000 </v>
   <v>       0.00000000       0.00000000       0.50000000 </v>
   <v>       0.50000000       0.00000000       0.50000000 </v>
   <v>       0.00000000       0.50000000       0.50000000 </v>
   <v>       0.50000000       0.50000000       0.50000000 </v>
   <v>       0.00000000       0.25000000       0.25000000 </v>
   <v>       0.50000000       0.25000000       0.25000000 </v>
   <v>       0.00000000       0.75000000       0.25000000 </v>
   <v>       0.50000000       0.75000000       0.25000000 </v>
   <v>       0.00000000       0.25000000       0.75000000 </v>
   <v>       0.50000000       0.25000000       0.75000000 </v>
   <v>       0.00000000       0.75000000       0.75000000 </v>
   <v>       0.50000000       0.75000000       0.75000000 </v>
   <v>       0.25000000       0.00000000       0.25000000 </v>
   <v>       0.75000000       0.00000000       0.25000000 </v>
   <v>       0.25000000       0.50000000       0.25000000 </v>
   <v>       0.75000000       0.50000000       0.25000000 </v>
   <v>       0.25000000       0.00000000       0.75000000 </v>
   <v>       0.75000000       0.00000000       0.75000000 </v>
   <v>       0.25000000       0.50000000       0.75000000 </v>
   <v>       0.75000000       0.50000000       0.75000000 </v>
   <v>       0.25000000       0.25000000       0.00000000 </v>
   <v>       0.75000000       0.25000000       0.00000000 </v>
   <v>       0.25000000       0.75000000       0.00000000 </v>
   <v>       0.75000000       0.75000000       0.00000000 </v>
   <v>       0.25000000       0.25000000       0.50000000 </v>
   <v>       0.75000000       0.25000000       0.50000000 </v>
   <v>       0.25000000       0.75000000       0.50000000 </v>
   <v>       0.75000000       0.75000000       0.50000000 </v>
   <v>       0.12575425       0.12500000       0.12500000 </v>
   <v>       0.62500000       0.12500000       0.12500000 </v>
   <v>       0.12500000       0.62500000       0.12500000 </v>
   <v>       0.62500000       0.62500000       0.12500000 </v>
   <v>       0.12500000       0.12500000       0.62500000 </v>
   <v>       0.62500000       0.12500000       0.62500000 </v>
   <v>       0.12500000       0.62500000       0.62500000 </v>
   <v>       0.62500000       0.62500000       0.62500000 </v>
   <v>       0.12500000       0.37500000       0.37500000 </v>
   <v>       0.62500000       0.37500000       0.37500000 </v>
   <v>       0.12500000       0.87500000       0.37500000 </v>
   <v>       0.62500000       0.87500000       0.37500000 </v>
   <v>       0.12500000       0.37500000       0.87500000 </v>
   <v>       0.62500000       0.37500000       0.87500000 </v>
   <v>       0.12500000       0.87500000       0.87500000 </v>
   <v>       0.62500000       0.87500000       0.87500000 </v>
   <v>       0.37500000       0.12500000       0.37500000 </v>
   <v>       0.87500000       0.12500000       0.37500000 </v>
   <v>       0.37500000       0.62500000       0.37500000 </v>
   <v>       0.87500000       0.62500000       0.37500000 </v>
   <v>       0.37500000       0.12500000       0.87500000 </v>
   <v>       0.87500000       0.12500000       0.87500000 </v>
   <v>       0.37500000       0.62500000       0.87500000 </v>
   <v>       0.87500000       0.62500000       0.87500000 </v>
   <v>       0.37500000       0.37500000       0.12500000 </v>
   <v>       0.87500000       0.37500000       0.12500000 </v>
   <v>       0.37500000       0.87500000       0.12500000 </v>
   <v>       0.87500000       0.87500000       0.12500000 </v>
   <v>       0.37500000       0.37500000       0.62500000 </v>
   <v>       0.87500000       0.37500000       0.62500000 </v>
   <v>       0.37500000       0.87500000       0.62500000 </v>
   <v>       0.87500000       0.87500000       0.62500000 </v>
  </varray>
 </structure>
 <calculation>
  <scstep>
   <time name="dav">   47.29   47.78</time>
   <time name="total">   47.33   47.84</time>
   <energy>
    <i name="alphaZ">   1501.49456034 </i>
    <i name="ewald"> -32696.38099408 </i>
    <i name="hartreedc"> -16734.44605893 </i>
    <i name="XCdc">   -731.85744202 </i>
    <i name="pawpsdc">  44941.76741987 </i>
    <i name="pawaedc"> -42629.27134123 </i>
    <i name="eentropy">     -0.03425604 </i>
    <i name="bandstr">    835.48921820 </i>
    <i name="atom">  48525.04422734 </i>
    <i name="e_fr_energy">   3011.80533345 </i>
    <i name="e_wo_entrp">   3011.83958949 </i>
    <i name="e_0_energy">   3011.82246147 </i>
   </energy>
  </scstep>
  <scstep>
   <time name="dav">   52.32   52.92</time>
   <time name="total">   52.33   52.92</time>
   <energy>
    <i name="e_fr_energy">      7.80460946 </i>
    <i name="e_wo_entrp">      7.80460946 </i>
    <i name="e_0_energy">      7.80460946 </i>
   </energy>
  </scstep>
  <scstep>
   <time name="dav">   54.30   54.87</time>
   <time name="total">   54.30   54.87</time>
   <energy>
    <i name="e_fr_energy">   -158.77168498 </i>
    <i name="e_wo_entrp">   -158.77168498 </i>
    <i name="e_0_energy">   -158.77168498 </i>
   </energy>
  </scstep>
  <scstep>
   <time name="dav">   54.75   55.36</time>
   <time name="total">   54.75   55.36</time>
   <energy>
    <i name="e_fr_energy">   -161.44960093 </i>
    <i name="e_wo_entrp">   -161.44960093 </i>
    <i name="e_0_energy">   -161.44960093 </i>
   </energy>
  </scstep>
  <scstep>
   <time name="dav">   51.83   53.10</time>
   <time name="total">   52.18   53.45</time>
   <energy>
    <i name="e_fr_energy">   -161.48568369 </i>
    <i name="e_wo_entrp">   -161.48568369 </i>
    <i name="e_0_energy">   -161.48568369 </i>
   </energy>
  </scstep>
  <scstep>
   <time name="dav">   51.85   52.29</time>
   <time name="total">   52.24   52.69</time>
   <energy>
    <i name="e_fr_energy">   -154.30822851 </i>
    <i name="e_wo_entrp">   -154.30822851 </i>
    <i name="e_0_energy">   -154.30822851 </i>
   </energy>
  </scstep>
  <scstep>
   <time name="dav">   49.92   50.34</time>
   <time name="total">   50.29   50.73</time>
   <energy>
    <i name="e_fr_energy">   -153.90596262 </i>
    <i name="e_wo_entrp">   -153.90596262 </i>
    <i name="e_0_energy">   -153.90596262 </i>
   </energy>
  </scstep>
  <scstep>
   <time name="dav">   51.48   51.92</time>
   <time name="total">   51.86   52.34</time>
   <energy>
    <i name="e_fr_energy">   -153.89695049 </i>
    <i name="e_wo_entrp">   -153.89695049 </i>
    <i name="e_0_energy">   -153.89695049 </i>
   </energy>
  </scstep>
  <scstep>
   <time name="dav">   51.38   51.81</time>
   <time name="total">   51.75   52.20</time>
   <energy>
    <i name="e_fr_energy">   -153.90278769 </i>
    <i name="e_wo_entrp">   -153.90278769 </i>
    <i name="e_0_energy">   -153.90278769 </i>
   </energy>
  </scstep>
  <scstep>
   <time name="dav">   53.25   53.69</time>
   <time name="total">   53.64   54.10</time>
   <energy>
    <i name="e_fr_energy">   -153.89997290 </i>
    <i name="e_wo_entrp">   -153.89997290 </i>
    <i name="e_0_energy">   -153.89997290 </i>
   </energy>
  </scstep>
  <scstep>
   <time name="dav">   51.39   51.82</time>
   <time name="total">   51.76   52.21</time>
   <energy>
    <i name="e_fr_energy">   -153.90063071 </i>
    <i name="e_wo_entrp">   -153.90063071 </i>
    <i name="e_0_energy">   -153.90063071 </i>
   </energy>
  </scstep>
  <scstep>
   <time name="dav">   48.69   49.11</time>
   <time name="total">   49.06   49.50</time>
   <energy>
    <i name="e_fr_energy">   -153.90081745 </i>
    <i name="e_wo_entrp">   -153.90081745 </i>
    <i name="e_0_energy">   -153.90081745 </i>
   </energy>
  </scstep>
  <scstep>
   <time name="dav">   42.46   42.82</time>
   <time name="total">   42.83   43.26</time>
   <energy>
    <i name="e_fr_energy">   -153.90097885 </i>
    <i name="e_wo_entrp">   -153.90097885 </i>
    <i name="e_0_energy">   -153.90097885 </i>
   </energy>
  </scstep>
  <scstep>
   <time name="dav">   38.23   38.55</time>
   <time name="total">   38.27   38.62</time>
   <energy>
    <i name="alphaZ">   1501.49456034 </i>
    <i name="ewald"> -32696.38099408 </i>
    <i name="hartreedc"> -16529.06839549 </i>
    <i name="XCdc">   -729.66523773 </i>
    <i name="pawpsdc">  54096.22676547 </i>
    <i name="pawaedc"> -51765.02303342 </i>
    <i name="eentropy">     -0.00000000 </i>
    <i name="bandstr">  -2556.52888093 </i>
    <i name="atom">  48525.04422734 </i>
    <i name="e_fr_energy">   -153.90098850 </i>
    <i name="e_wo_entrp">   -153.90098850 </i>
    <i name="e_0_energy">   -153.90098850 </i>
   </energy>
  </scstep>
  <structure>
   <crystal>
    <varray name="basis" >
     <v>      13.25813485       0.00000000       0.00000000 </v>
     <v>       0.00000000      13.25813485       0.00000000 </v>
     <v>       0.00000000       0.00000000      13.25813485 </v>
    </varray>
    <i name="volume">   2330.49027860 </i>
    <varray name="rec_basis" >
     <v>       0.07542539       0.00000000       0.00000000 </v>
     <v>       0.00000000       0.07542539       0.00000000 </v>
     <v>       0.00000000       0.00000000       0.07542539 </v>
    </varray>
   </crystal>
   <varray name="positions" >
    <v>       0.00000000       0.00000000       0.00000000 </v>
    <v>       0.50000000       0.00000000       0.00000000 </v>
    <v>       0.00000000       0.50000000       0.00000000 </v>
    <v>       0.50000000       0.50000000       0.00000000 </v>
    <v>       0.00000000       0.00000000       0.50000000 </v>
    <v>       0.50000000       0.00000000       0.50000000 </v>
    <v>       0.00000000       0.50000000       0.50000000 </v>
    <v>       0.50000000       0.50000000       0.50000000 </v>
    <v>       0.00000000       0.25000000       0.25000000 </v>
    <v>       0.50000000       0.25000000       0.25000000 </v>
    <v>       0.00000000       0.75000000       0.25000000 </v>
    <v>       0.50000000       0.75000000       0.25000000 </v>
    <v>       0.00000000       0.25000000       0.75000000 </v>
    <v>       0.50000000       0.25000000       0.75000000 </v>
    <v>       0.00000000       0.75000000       0.75000000 </v>
    <v>       0.50000000       0.75000000       0.75000000 </v>
    <v>       0.25000000       0.00000000       0.25000000 </v>
    <v>       0.75000000       0.00000000       0.25000000 </v>
    <v>       0.25000000       0.50000000       0.25000000 </v>
    <v>       0.75000000       0.50000000       0.25000000 </v>
    <v>       0.25000000       0.00000000       0.75000000 </v>
    <v>       0.75000000       0.00000000       0.75000000 </v>
    <v>       0.25000000       0.50000000       0.75000000 </v>
    <v>       0.75000000       0.50000000       0.75000000 </v>
    <v>       0.25000000       0.25000000       0.00000000 </v>
    <v>       0.75000000       0.25000000       0.00000000 </v>
    <v>       0.25000000       0.75000000       0.00000000 </v>
    <v>       0.75000000       0.75000000       0.00000000 </v>
    <v>       0.25000000       0.25000000       0.50000000 </v>
    <v>       0.75000000       0.25000000       0.50000000 </v>
    <v>       0.25000000       0.75000000       0.50000000 </v>
    <v>       0.75000000       0.75000000       0.50000000 </v>
    <v>       0.12575425       0.12500000       0.12500000 </v>
    <v>       0.62500000       0.12500000       0.12500000 </v>
    <v>       0.12500000       0.62500000       0.12500000 </v>
    <v>       0.62500000       0.62500000       0.12500000 </v>
    <v>       0.12500000       0.12500000       0.62500000 </v>
    <v>       0.62500000       0.12500000       0.62500000 </v>
    <v>       0.12500000       0.62500000       0.62500000 </v>
    <v>       0.62500000       0.62500000       0.62500000 </v>
    <v>       0.12500000       0.37500000       0.37500000 </v>
    <v>       0.62500000       0.37500000       0.37500000 </v>
    <v>       0.12500000       0.87500000       0.37500000 </v>
    <v>       0.62500000       0.87500000       0.37500000 </v>
    <v>       0.12500000       0.37500000       0.87500000 </v>
    <v>       0.62500000       0.37500000       0.87500000 </v>
    <v>       0.12500000       0.87500000       0.87500000 </v>
    <v>       0.62500000       0.87500000       0.87500000 </v>
    <v>       0.37500000       0.12500000       0.37500000 </v>
    <v>       0.87500000       0.12500000       0.37500000 </v>
    <v>       0.37500000       0.62500000       0.37500000 </v>
    <v>       0.87500000       0.62500000       0.37500000 </v>
    <v>       0.37500000       0.12500000       0.87500000 </v>
    <v>       0.87500000       0.12500000       0.87500000 </v>
    <v>       0.37500000       0.62500000       0.87500000 </v>
    <v>       0.87500000       0.62500000       0.87500000 </v>
    <v>       0.37500000       0.37500000       0.12500000 </v>
    <v>       0.87500000       0.37500000       0.12500000 </v>
    <v>       0.37500000       0.87500000       0.12500000 </v>
    <v>       0.87500000       0.87500000       0.12500000 </v>
    <v>       0.37500000       0.37500000       0.62500000 </v>
    <v>       0.87500000       0.37500000       0.62500000 </v>
    <v>       0.37500000       0.87500000       0.62500000 </v>
    <v>       0.87500000       0.87500000       0.62500000 </v>
   </varray>
  </structure>
  <varray name="forces" >
   <v>       0.01013539       0.00856299       0.00856299 </v>
   <v>      -0.00060798      -0.00000537      -0.00000537 </v>
   <v>       0.00034518       0.00028238      -0.00015651 </v>
   <v>      -0.00056280      -0.00040185       0.00061358 </v>
   <v>       0.00034518      -0.00015651       0.00028238 </v>
   <v>      -0.00056280       0.00061358      -0.00040185 </v>
   <v>       0.00032531      -0.00009276      -0.00009276 </v>
   <v>      -0.00020338       0.00004756       0.00004756 </v>
   <v>       0.01013539      -0.00856299      -0.00856299 </v>
   <v>      -0.00060798       0.00000537       0.00000537 </v>
   <v>       0.00034518      -0.00028238       0.00015651 </v>
   <v>      -0.00056280       0.00040185      -0.00061358 </v>
   <v>       0.00034518       0.00015651      -0.00028238 </v>
   <v>      -0.00056280      -0.00061358       0.00040185 </v>
   <v>       0.00032531       0.00009276       0.00009276 </v>
   <v>      -0.00020338      -0.00004756      -0.00004756 </v>
   <v>       0.01027898      -0.00882090       0.00882090 </v>
   <v>      -0.00060687       0.00000447      -0.00000447 </v>
   <v>       0.00034994      -0.00028206      -0.00015954 </v>
   <v>      -0.00056218       0.00040088       0.00060901 </v>
   <v>       0.00034994       0.00015954       0.00028206 </v>
   <v>      -0.00056218      -0.00060901      -0.00040088 </v>
   <v>       0.00033228       0.00009289      -0.00009289 </v>
   <v>      -0.00020265      -0.00004888       0.00004888 </v>
   <v>       0.01027898       0.00882090      -0.00882090 </v>
   <v>      -0.00060687      -0.00000447       0.00000447 </v>
   <v>       0.00034994       0.00028206       0.00015954 </v>
   <v>      -0.00056218      -0.00040088      -0.00060901 </v>
   <v>       0.00034994      -0.00015954      -0.00028206 </v>
   <v>      -0.00056218       0.00060901       0.00040088 </v>
   <v>       0.00033228      -0.00009289       0.00009289 </v>
   <v>      -0.00020265       0.00004888      -0.00004888 </v>
   <v>      -0.05581713      -0.00000000       0.00000000 </v>
   <v>       0.00039241      -0.00000000       0.00000000 </v>
   <v>      -0.00024133      -0.00000000       0.00000000 </v>
   <v>       0.00104135      -0.00000000       0.00000000 </v>
   <v>      -0.00024133      -0.00000000       0.00000000 </v>
   <v>       0.00104135      -0.00000000       0.00000000 </v>
   <v>      -0.00016151      -0.00000000       0.00000000 </v>
   <v>       0.00012079      -0.00000000       0.00000000 </v>
   <v>       0.00014014       0.00048046       0.00048046 </v>
   <v>       0.00032292      -0.00003011      -0.00003011 </v>
   <v>       0.00014460       0.00049365      -0.00049365 </v>
   <v>       0.00032301      -0.00003048       0.00003048 </v>
   <v>       0.00014460      -0.00049365       0.00049365 </v>
   <v>       0.00032301       0.00003048      -0.00003048 </v>
   <v>       0.00014014      -0.00048046      -0.00048046 </v>
   <v>       0.00032292       0.00003011       0.00003011 </v>
   <v>       0.00185106      -0.00048536       0.00214732 </v>
   <v>       0.00183552      -0.00048930      -0.00212290 </v>
   <v>       0.00000829       0.00003038       0.00010801 </v>
   <v>       0.00001046       0.00003102      -0.00010736 </v>
   <v>       0.00185106       0.00048536      -0.00214732 </v>
   <v>       0.00183552       0.00048930       0.00212290 </v>
   <v>       0.00000829      -0.00003038      -0.00010801 </v>
   <v>       0.00001046      -0.00003102       0.00010736 </v>
   <v>       0.00185106       0.00214732      -0.00048536 </v>
   <v>       0.00183552      -0.00212290      -0.00048930 </v>
   <v>       0.00185106      -0.00214732       0.00048536 </v>
   <v>       0.00183552       0.00212290       0.00048930 </v>
   <v>       0.00000829       0.00010801       0.00003038 </v>
   <v>       0.00001046      -0.00010736       0.00003102 </v>
   <v>       0.00000829      -0.00010801      -0.00003038 </v>
   <v>       0.00001046       0.00010736      -0.00003102 </v>
  </varray>
  <varray name="stress" >
   <v>      -3.87445169       0.00000000       0.00000000 </v>
   <v>       0.00000000      -3.87397652      -0.03126982 </v>
   <v>       0.00000000      -0.03126982      -3.87397652 </v>
  </varray>
  <energy>
   <i name="e_fr_energy">   -153.90098850 </i>
   <i name="e_wo_entrp">   -153.90098850 </i>
   <i name="e_0_energy">   -153.90098850 </i>
  </energy>
  <time name="totalsc">  793.55  802.67</time>
  <eigenvalues>
   <array>
    <dimension dim="1">band</dimension>
    <dimension dim="2">kpoint</dimension>
    <dimension dim="3">spin</dimension>
    <field>eigene</field>
    <field>occ</field>
    <set>
     <set comment="spin 1">
      <set comment="kpoint 1">
       <r>   -9.0536    1.0000 </r>
       <r>   -8.8291    1.0000 </r>
       <r>   -8.8290    1.0000 </r>
       <r>   -8.8290    1.0000 </r>
       <r>   -8.8290    1.0000 </r>
       <r>   -8.8289    1.0000 </r>
       <r>   -8.8288    1.0000 </r>
       <r>   -8.7197    1.0000 </r>
       <r>   -8.7197    1.0000 </r>
       <r>   -8.7196    1.0000 </r>
       <r>   -8.7193    1.0000 </r>
       <r>   -8.7192    1.0000 </r>
       <r>   -8.7192    1.0000 </r>
       <r>   -8.7192    1.0000 </r>
       <r>   -8.7192    1.0000 </r>
       <r>   -8.7192    1.0000 </r>
       <r>   -8.7189    1.0000 </r>
       <r>   -8.7189    1.0000 </r>
       <r>   -8.7189    1.0000 </r>
       <r>   -8.7172    1.0000 </r>
       <r>   -8.7171    1.0000 </r>
       <r>   -8.7170    1.0000 </r>
       <r>   -8.7170    1.0000 </r>
       <r>   -8.6160    1.0000 </r>
       <r>   -8.6157    1.0000 </r>
       <r>   -8.6156    1.0000 </r>
       <r>   -8.6156    1.0000 </r>
       <r>   -8.6156    1.0000 </r>
       <r>   -8.6155    1.0000 </r>
       <r>   -8.6144    1.0000 </r>
       <r>   -8.6144    1.0000 </r>
       <r>   -8.6141    1.0000 </r>
       <r>   -6.3099    1.0000 </r>
       <r>   -6.3098    1.0000 </r>
       <r>   -6.3097    1.0000 </r>
       <r>   -6.2585    1.0000 </r>
       <r>   -6.2582    1.0000 </r>
       <r>   -6.2582    1.0000 </r>
       <r>   -6.2581    1.0000 </r>
       <r>   -6.2580    1.0000 </r>
       <r>   -6.2580    1.0000 </r>
       <r>   -6.2579    1.0000 </r>
       <r>   -6.2578    1.0000 </r>
       <r>   -6.2471    1.0000 </r>
       <r>   -6.2465    1.0000 </r>
       <r>   -6.2464    1.0000 </r>
       <r>   -6.2464    1.0000 </r>
       <r>   -6.2464    1.0000 </r>
       <r>   -6.2463    1.0000 </r>
       <r>   -6.2463    1.0000 </r>
       <r>   -6.2463    1.0000 </r>
       <r>   -6.2463    1.0000 </r>
       <r>   -6.2463    1.0000 </r>
       <r>   -6.2462    1.0000 </r>
       <r>   -6.2459    1.0000 </r>
       <r>   -6.2449    1.0000 </r>
       <r>   -6.2446    1.0000 </r>
       <r>   -6.2446    1.0000 </r>
       <r>   -6.2446    1.0000 </r>
       <r>   -6.2445    1.0000 </r>
       <r>   -6.2445    1.0000 </r>
       <r>   -6.2445    1.0000 </r>
       <r>   -6.2444    1.0000 </r>
       <r>   -6.2444    1.0000 </r>
       <r>   -6.2444    1.0000 </r>
       <r>   -6.2444    1.0000 </r>
       <r>   -6.2440    1.0000 </r>
       <r>   -6.2424    1.0000 </r>
       <r>   -6.2422    1.0000 </r>
       <r>   -6.2421    1.0000 </r>
       <r>   -6.2421    1.0000 </r>
       <r>   -6.2421    1.0000 </r>
       <r>   -6.2421    1.0000 </r>
       <r>   -6.2420    1.0000 </r>
       <r>   -6.2420    1.0000 </r>
       <r>   -6.2420    1.0000 </r>
       <r>   -6.2420    1.0000 </r>
       <r>   -6.2419    1.0000 </r>
       <r>   -6.2414    1.0000 </r>
       <r>   -6.2104    1.0000 </r>
       <r>   -6.2102    1.0000 </r>
       <r>   -6.2102    1.0000 </r>
       <r>   -6.2102    1.0000 </r>
       <r>   -6.2101    1.0000 </r>
       <r>   -6.2099    1.0000 </r>
       <r>   -6.2025    1.0000 </r>
       <r>   -6.2024    1.0000 </r>
       <r>   -6.2024    1.0000 </r>
       <r>   -6.2023    1.0000 </r>
       <r>   -6.2023    1.0000 </r>
       <r>   -6.2021    1.0000 </r>
       <r>   -6.1774    1.0000 </r>
       <r>   -6.1771    1.0000 </r>
       <r>   -6.1771    1.0000 </r>
       <r>   -6.1771    1.0000 </r>
       <r>   -6.1770    1.0000 </r>
       <r>   -6.1767    1.0000 </r>
       <r>   -6.1748    1.0000 </r>
       <r>   -6.1747    1.0000 </r>
       <r>   -6.1746    1.0000 </r>
       <r>   -6.1663    1.0000 </r>
       <r>   -6.1661    1.0000 </r>
       <r>   -6.1661    1.0000 </r>
       <r>   -6.1661    1.0000 </r>
       <r>   -6.1661    1.0000 </r>
       <r>   -6.1659    1.0000 </r>
       <r>   -6.1193    1.0000 </r>
       <r>   -6.1193    1.0000 </r>
       <r>   -6.1192    1.0000 </r>
       <r>   -6.1192    1.0000 </r>
       <r>   -6.1192    1.0000 </r>
       <r>   -6.1192    1.0000 </r>
       <r>   -6.1017    1.0000 </r>
       <r>   -6.1017    1.0000 </r>
       <r>   -6.1017    1.0000 </r>
       <r>   -6.1017    1.0000 </r>
       <r>   -6.1016    1.0000 </r>
       <r>   -6.1016    1.0000 </r>
       <r>   -6.1014    1.0000 </r>
       <r>   -6.1014    1.0000 </r>
       <r>   -6.1014    1.0000 </r>
       <r>   -6.1014    1.0000 </r>
       <r>   -6.1013    1.0000 </r>
       <r>   -6.1013    1.0000 </r>
       <r>   -6.1004    1.0000 </r>
       <r>   -6.1004    1.0000 </r>
       <r>   -6.1003    1.0000 </r>
       <r>   -6.1003    1.0000 </r>
       <r>   -6.1003    1.0000 </r>
       <r>   -6.1003    1.0000 </r>
       <r>   -6.1001    1.0000 </r>
       <r>   -6.1001    1.0000 </r>
       <r>   -6.1001    1.0000 </r>
       <r>   -6.1001    1.0000 </r>
       <r>   -6.1001    1.0000 </r>
       <r>   -6.1000    1.0000 </r>
       <r>   -6.0960    1.0000 </r>
       <r>   -6.0960    1.0000 </r>
       <r>   -6.0942    1.0000 </r>
       <r>   -6.0941    1.0000 </r>
       <r>   -6.0940    1.0000 </r>
       <r>   -6.0940    1.0000 </r>
       <r>   -6.0940    1.0000 </r>
       <r>   -6.0939    1.0000 </r>
       <r>   -6.0887    1.0000 </r>
       <r>   -6.0887    1.0000 </r>
       <r>   -6.0887    1.0000 </r>
       <r>   -6.0887    1.0000 </r>
       <r>   -6.0884    1.0000 </r>
       <r>   -6.0884    1.0000 </r>
       <r>   -6.0884    1.0000 </r>
       <r>   -6.0884    1.0000 </r>
       <r>   -6.0833    1.0000 </r>
       <r>   -6.0832    1.0000 </r>
       <r>   -6.0831    1.0000 </r>
       <r>   -6.0831    1.0000 </r>
       <r>   -6.0830    1.0000 </r>
       <r>   -6.0830    1.0000 </r>
       <r>   -6.0707    1.0000 </r>
       <r>   -6.0706    1.0000 </r>
       <r>   -6.0705    1.0000 </r>
       <r>   -6.0635    1.0000 </r>
       <r>   -6.0635    1.0000 </r>
       <r>   -6.0634    1.0000 </r>
       <r>   -6.0634    1.0000 </r>
       <r>   -6.0633    1.0000 </r>
       <r>   -6.0633    1.0000 </r>
       <r>   -5.8517    1.0000 </r>
       <r>   -5.8515    1.0000 </r>
       <r>   -5.8513    1.0000 </r>
       <r>   -5.8513    1.0000 </r>
       <r>   -5.8513    1.0000 </r>
       <r>   -5.8513    1.0000 </r>
       <r>   -5.8513    1.0000 </r>
       <r>   -5.8513    1.0000 </r>
       <r>   -5.8513    1.0000 </r>
       <r>   -5.8513    1.0000 </r>
       <r>   -5.8511    1.0000 </r>
       <r>   -5.8509    1.0000 </r>
       <r>   -5.7966    1.0000 </r>
       <r>   -5.7966    1.0000 </r>
       <r>   -5.7966    1.0000 </r>
       <r>   -5.7965    1.0000 </r>
       <r>   -5.6789    1.0000 </r>
       <r>   -5.6789    1.0000 </r>
       <r>   -5.6789    1.0000 </r>
       <r>   -5.6161    1.0000 </r>
       <r>   -5.6161    1.0000 </r>
       <r>   -5.6161    1.0000 </r>
       <r>   -5.6161    1.0000 </r>
       <r>   -5.6160    1.0000 </r>
       <r>   -5.6160    1.0000 </r>
       <r>   -2.2998    1.0000 </r>
       <r>   -2.2993    1.0000 </r>
       <r>   -2.2991    1.0000 </r>
       <r>   -2.2986    1.0000 </r>
       <r>   -2.2358    1.0000 </r>
       <r>   -2.2351    1.0000 </r>
       <r>   -2.2345    1.0000 </r>
       <r>   -2.1189    1.0000 </r>
       <r>   -2.1176    1.0000 </r>
       <r>   -2.1174    1.0000 </r>
       <r>   -2.1174    1.0000 </r>
       <r>   -2.1173    1.0000 </r>
       <r>   -2.1160    1.0000 </r>
       <r>   -1.7019    1.0000 </r>
       <r>   -1.7005    1.0000 </r>
       <r>   -1.6999    1.0000 </r>
       <r>   -1.6999    1.0000 </r>
       <r>   -1.6998    1.0000 </r>
       <r>   -1.6998    1.0000 </r>
       <r>   -1.6998    1.0000 </r>
       <r>   -1.6998    1.0000 </r>
       <r>   -1.6997    1.0000 </r>
       <r>   -1.6997    1.0000 </r>
       <r>   -1.6991    1.0000 </r>
       <r>   -1.6976    1.0000 </r>
       <r>   -0.7874    1.0000 </r>
       <r>   -0.7867    1.0000 </r>
       <r>   -0.7865    1.0000 </r>
       <r>   -0.7865    1.0000 </r>
       <r>   -0.7862    1.0000 </r>
       <r>   -0.7855    1.0000 </r>
       <r>   -0.3100    1.0000 </r>
       <r>   -0.3099    1.0000 </r>
       <r>   -0.3098    1.0000 </r>
       <r>   -0.3098    1.0000 </r>
       <r>   -0.3098    1.0000 </r>
       <r>   -0.3097    1.0000 </r>
       <r>   -0.1698    1.0000 </r>
       <r>   -0.1692    1.0000 </r>
       <r>   -0.1689    1.0000 </r>
       <r>   -0.1689    1.0000 </r>
       <r>   -0.1686    1.0000 </r>
       <r>   -0.1680    1.0000 </r>
       <r>   -0.1442    1.0000 </r>
       <r>   -0.1441    1.0000 </r>
       <r>   -0.1440    1.0000 </r>
       <r>   -0.1432    1.0000 </r>
       <r>   -0.1431    1.0000 </r>
       <r>   -0.1431    1.0000 </r>
       <r>   -0.1431    1.0000 </r>
       <r>   -0.1431    1.0000 </r>
       <r>   -0.1430    1.0000 </r>
       <r>   -0.1422    1.0000 </r>
       <r>   -0.1421    1.0000 </r>
       <r>   -0.1420    1.0000 </r>
       <r>    0.1119    1.0000 </r>
       <r>    0.1121    1.0000 </r>
       <r>    0.1121    1.0000 </r>
       <r>    0.1121    1.0000 </r>
       <r>    0.1121    1.0000 </r>
       <r>    0.1124    1.0000 </r>
       <r>    0.8050    1.0000 </r>
       <r>    0.8057    1.0000 </r>
       <r>    0.8064    1.0000 </r>
       <r>    0.8064    1.0000 </r>
       <r>    0.8065    1.0000 </r>
       <r>    0.8065    1.0000 </r>
       <r>    0.8065    1.0000 </r>
       <r>    0.8065    1.0000 </r>
       <r>    0.8065    1.0000 </r>
       <r>    0.8066    1.0000 </r>
       <r>    0.8072    1.0000 </r>
       <r>    0.8080    1.0000 </r>
       <r>    1.0494    1.0000 </r>
       <r>    1.0494    1.0000 </r>
       <r>    1.0502    1.0000 </r>
       <r>    1.0504    1.0000 </r>
       <r>    1.0504    1.0000 </r>
       <r>    1.0504    1.0000 </r>
       <r>    1.0504    1.0000 </r>
       <r>    1.0505    1.0000 </r>
       <r>    1.0505    1.0000 </r>
       <r>    1.0507    1.0000 </r>
       <r>    1.0514    1.0000 </r>
       <r>    1.0515    1.0000 </r>
       <r>    1.0763    1.0000 </r>
       <r>    1.0766    1.0000 </r>
       <r>    1.0770    1.0000 </r>
       <r>    1.0770    1.0000 </r>
       <r>    1.0771    1.0000 </r>
       <r>    1.0771    1.0000 </r>
       <r>    1.0776    1.0000 </r>
       <r>    1.0778    1.0000 </r>
       <r>    1.7570    1.0000 </r>
       <r>    1.7573    1.0000 </r>
       <r>    1.7575    1.0000 </r>
       <r>    2.3220    0.0000 </r>
       <r>    3.5027    0.0000 </r>
       <r>    3.5032    0.0000 </r>
       <r>    3.5035    0.0000 </r>
       <r>    3.5041    0.0000 </r>
       <r>    4.4220    0.0000 </r>
       <r>    4.4232    0.0000 </r>
       <r>    4.4243    0.0000 </r>
       <r>    4.5069    0.0000 </r>
       <r>    4.5069    0.0000 </r>
       <r>    4.5069    0.0000 </r>
       <r>    4.5603    0.0000 </r>
       <r>    4.5620    0.0000 </r>
       <r>    4.5623    0.0000 </r>
       <r>    4.5623    0.0000 </r>
       <r>    4.5627    0.0000 </r>
       <r>    4.5643    0.0000 </r>
       <r>    4.7452    0.0000 </r>
       <r>    4.7468    0.0000 </r>
       <r>    4.7481    0.0000 </r>
       <r>    4.7481    0.0000 </r>
       <r>    4.7481    0.0000 </r>
       <r>    4.7481    0.0000 </r>
       <r>    4.7482    0.0000 </r>
       <r>    4.7483    0.0000 </r>
       <r>    4.7483    0.0000 </r>
       <r>    4.7483    0.0000 </r>
       <r>    4.7496    0.0000 </r>
       <r>    4.7513    0.0000 </r>
       <r>    5.1468    0.0000 </r>
       <r>    5.1472    0.0000 </r>
       <r>    5.1473    0.0000 </r>
       <r>    5.1474    0.0000 </r>
       <r>    5.1475    0.0000 </r>
       <r>    5.1479    0.0000 </r>
       <r>    5.7664    0.0000 </r>
       <r>    5.7688    0.0000 </r>
       <r>    5.7689    0.0000 </r>
       <r>    5.7689    0.0000 </r>
       <r>    5.7690    0.0000 </r>
       <r>    5.7714    0.0000 </r>
       <r>    6.3967    0.0000 </r>
       <r>    6.3969    0.0000 </r>
       <r>    6.3971    0.0000 </r>
       <r>    6.4542    0.0000 </r>
       <r>    6.4551    0.0000 </r>
       <r>    6.4554    0.0000 </r>
       <r>    6.4554    0.0000 </r>
       <r>    6.4557    0.0000 </r>
       <r>    6.4566    0.0000 </r>
       <r>    6.9449    0.0000 </r>
       <r>    6.9462    0.0000 </r>
       <r>    6.9471    0.0000 </r>
       <r>    6.9475    0.0000 </r>
       <r>    6.9477    0.0000 </r>
       <r>    6.9478    0.0000 </r>
       <r>    6.9478    0.0000 </r>
       <r>    6.9479    0.0000 </r>
       <r>    6.9481    0.0000 </r>
       <r>    6.9485    0.0000 </r>
       <r>    6.9492    0.0000 </r>
       <r>    6.9503    0.0000 </r>
       <r>    6.9634    0.0000 </r>
       <r>    6.9634    0.0000 </r>
       <r>    6.9641    0.0000 </r>
       <r>    6.9642    0.0000 </r>
       <r>    6.9644    0.0000 </r>
       <r>    6.9645    0.0000 </r>
       <r>    6.9654    0.0000 </r>
       <r>    6.9656    0.0000 </r>
       <r>    7.2331    0.0000 </r>
       <r>    7.2334    0.0000 </r>
       <r>    7.2334    0.0000 </r>
       <r>    7.2334    0.0000 </r>
       <r>    7.2335    0.0000 </r>
       <r>    7.2338    0.0000 </r>
       <r>    7.3049    0.0000 </r>
       <r>    7.3058    0.0000 </r>
       <r>    7.3067    0.0000 </r>
       <r>    7.3070    0.0000 </r>
       <r>    7.3071    0.0000 </r>
       <r>    7.3071    0.0000 </r>
       <r>    7.3071    0.0000 </r>
       <r>    7.3072    0.0000 </r>
       <r>    7.3073    0.0000 </r>
       <r>    7.3075    0.0000 </r>
       <r>    7.3085    0.0000 </r>
       <r>    7.3093    0.0000 </r>
       <r>    7.5547    0.0000 </r>
       <r>    7.5556    0.0000 </r>
       <r>    7.5564    0.0000 </r>
       <r>    7.5566    0.0000 </r>
       <r>    7.5567    0.0000 </r>
       <r>    7.5568    0.0000 </r>
       <r>    7.5570    0.0000 </r>
       <r>    7.5575    0.0000 </r>
      </set>
      <set comment="kpoint 2">
       <r>   -9.0234    1.0000 </r>
       <r>   -8.9408    1.0000 </r>
       <r>   -8.8140    1.0000 </r>
       <r>   -8.8140    1.0000 </r>
       <r>   -8.8140    1.0000 </r>
       <r>   -8.8139    1.0000 </r>
       <r>   -8.7734    1.0000 </r>
       <r>   -8.7734    1.0000 </r>
       <r>   -8.7734    1.0000 </r>
       <r>   -8.7734    1.0000 </r>
       <r>   -8.7196    1.0000 </r>
       <r>   -8.7190    1.0000 </r>
       <r>   -8.7190    1.0000 </r>
       <r>   -8.7188    1.0000 </r>
       <r>   -8.7186    1.0000 </r>
       <r>   -8.7177    1.0000 </r>
       <r>   -8.7176    1.0000 </r>
       <r>   -8.7174    1.0000 </r>
       <r>   -8.7174    1.0000 </r>
       <r>   -8.6667    1.0000 </r>
       <r>   -8.6666    1.0000 </r>
       <r>   -8.6666    1.0000 </r>
       <r>   -8.6666    1.0000 </r>
       <r>   -8.6420    1.0000 </r>
       <r>   -8.6292    1.0000 </r>
       <r>   -8.6292    1.0000 </r>
       <r>   -8.6292    1.0000 </r>
       <r>   -8.6291    1.0000 </r>
       <r>   -8.6157    1.0000 </r>
       <r>   -8.6153    1.0000 </r>
       <r>   -8.6147    1.0000 </r>
       <r>   -8.6143    1.0000 </r>
       <r>   -6.3018    1.0000 </r>
       <r>   -6.3016    1.0000 </r>
       <r>   -6.2903    1.0000 </r>
       <r>   -6.2792    1.0000 </r>
       <r>   -6.2790    1.0000 </r>
       <r>   -6.2567    1.0000 </r>
       <r>   -6.2566    1.0000 </r>
       <r>   -6.2566    1.0000 </r>
       <r>   -6.2566    1.0000 </r>
       <r>   -6.2550    1.0000 </r>
       <r>   -6.2548    1.0000 </r>
       <r>   -6.2546    1.0000 </r>
       <r>   -6.2545    1.0000 </r>
       <r>   -6.2544    1.0000 </r>
       <r>   -6.2544    1.0000 </r>
       <r>   -6.2542    1.0000 </r>
       <r>   -6.2542    1.0000 </r>
       <r>   -6.2542    1.0000 </r>
       <r>   -6.2541    1.0000 </r>
       <r>   -6.2540    1.0000 </r>
       <r>   -6.2540    1.0000 </r>
       <r>   -6.2484    1.0000 </r>
       <r>   -6.2481    1.0000 </r>
       <r>   -6.2479    1.0000 </r>
       <r>   -6.2478    1.0000 </r>
       <r>   -6.2474    1.0000 </r>
       <r>   -6.2472    1.0000 </r>
       <r>   -6.2472    1.0000 </r>
       <r>   -6.2471    1.0000 </r>
       <r>   -6.2471    1.0000 </r>
       <r>   -6.2470    1.0000 </r>
       <r>   -6.2469    1.0000 </r>
       <r>   -6.2467    1.0000 </r>
       <r>   -6.2466    1.0000 </r>
       <r>   -6.2466    1.0000 </r>
       <r>   -6.2463    1.0000 </r>
       <r>   -6.2462    1.0000 </r>
       <r>   -6.2319    1.0000 </r>
       <r>   -6.2317    1.0000 </r>
       <r>   -6.2316    1.0000 </r>
       <r>   -6.2314    1.0000 </r>
       <r>   -6.2314    1.0000 </r>
       <r>   -6.2239    1.0000 </r>
       <r>   -6.2237    1.0000 </r>
       <r>   -6.2237    1.0000 </r>
       <r>   -6.2236    1.0000 </r>
       <r>   -6.2183    1.0000 </r>
       <r>   -6.2181    1.0000 </r>
       <r>   -6.2181    1.0000 </r>
       <r>   -6.2179    1.0000 </r>
       <r>   -6.2125    1.0000 </r>
       <r>   -6.2123    1.0000 </r>
       <r>   -6.2071    1.0000 </r>
       <r>   -6.2070    1.0000 </r>
       <r>   -6.2070    1.0000 </r>
       <r>   -6.2069    1.0000 </r>
       <r>   -6.2027    1.0000 </r>
       <r>   -6.2027    1.0000 </r>
       <r>   -6.1998    1.0000 </r>
       <r>   -6.1995    1.0000 </r>
       <r>   -6.1909    1.0000 </r>
       <r>   -6.1907    1.0000 </r>
       <r>   -6.1868    1.0000 </r>
       <r>   -6.1866    1.0000 </r>
       <r>   -6.1860    1.0000 </r>
       <r>   -6.1860    1.0000 </r>
       <r>   -6.1706    1.0000 </r>
       <r>   -6.1623    1.0000 </r>
       <r>   -6.1557    1.0000 </r>
       <r>   -6.1556    1.0000 </r>
       <r>   -6.1449    1.0000 </r>
       <r>   -6.1449    1.0000 </r>
       <r>   -6.1449    1.0000 </r>
       <r>   -6.1448    1.0000 </r>
       <r>   -6.1334    1.0000 </r>
       <r>   -6.1334    1.0000 </r>
       <r>   -6.1175    1.0000 </r>
       <r>   -6.1174    1.0000 </r>
       <r>   -6.1174    1.0000 </r>
       <r>   -6.1174    1.0000 </r>
       <r>   -6.1171    1.0000 </r>
       <r>   -6.1171    1.0000 </r>
       <r>   -6.1170    1.0000 </r>
       <r>   -6.1170    1.0000 </r>
       <r>   -6.1107    1.0000 </r>
       <r>   -6.1107    1.0000 </r>
       <r>   -6.1107    1.0000 </r>
       <r>   -6.1106    1.0000 </r>
       <r>   -6.1018    1.0000 </r>
       <r>   -6.0987    1.0000 </r>
       <r>   -6.0981    1.0000 </r>
       <r>   -6.0981    1.0000 </r>
       <r>   -6.0979    1.0000 </r>
       <r>   -6.0979    1.0000 </r>
       <r>   -6.0968    1.0000 </r>
       <r>   -6.0967    1.0000 </r>
       <r>   -6.0965    1.0000 </r>
       <r>   -6.0965    1.0000 </r>
       <r>   -6.0943    1.0000 </r>
       <r>   -6.0943    1.0000 </r>
       <r>   -6.0943    1.0000 </r>
       <r>   -6.0943    1.0000 </r>
       <r>   -6.0942    1.0000 </r>
       <r>   -6.0935    1.0000 </r>
       <r>   -6.0934    1.0000 </r>
       <r>   -6.0934    1.0000 </r>
       <r>   -6.0934    1.0000 </r>
       <r>   -6.0916    1.0000 </r>
       <r>   -6.0916    1.0000 </r>
       <r>   -6.0914    1.0000 </r>
       <r>   -6.0913    1.0000 </r>
       <r>   -6.0912    1.0000 </r>
       <r>   -6.0911    1.0000 </r>
       <r>   -6.0911    1.0000 </r>
       <r>   -6.0911    1.0000 </r>
       <r>   -6.0908    1.0000 </r>
       <r>   -6.0907    1.0000 </r>
       <r>   -6.0905    1.0000 </r>
       <r>   -6.0904    1.0000 </r>
       <r>   -6.0896    1.0000 </r>
       <r>   -6.0848    1.0000 </r>
       <r>   -6.0847    1.0000 </r>
       <r>   -6.0847    1.0000 </r>
       <r>   -6.0846    1.0000 </r>
       <r>   -6.0846    1.0000 </r>
       <r>   -6.0844    1.0000 </r>
       <r>   -6.0767    1.0000 </r>
       <r>   -6.0742    1.0000 </r>
       <r>   -6.0741    1.0000 </r>
       <r>   -6.0721    1.0000 </r>
       <r>   -6.0414    1.0000 </r>
       <r>   -6.0413    1.0000 </r>
       <r>   -6.0412    1.0000 </r>
       <r>   -6.0411    1.0000 </r>
       <r>   -5.9656    1.0000 </r>
       <r>   -5.9655    1.0000 </r>
       <r>   -5.9655    1.0000 </r>
       <r>   -5.9654    1.0000 </r>
       <r>   -5.9174    1.0000 </r>
       <r>   -5.8380    1.0000 </r>
       <r>   -5.8380    1.0000 </r>
       <r>   -5.8380    1.0000 </r>
       <r>   -5.8379    1.0000 </r>
       <r>   -5.8104    1.0000 </r>
       <r>   -5.8104    1.0000 </r>
       <r>   -5.8104    1.0000 </r>
       <r>   -5.8104    1.0000 </r>
       <r>   -5.7537    1.0000 </r>
       <r>   -5.7336    1.0000 </r>
       <r>   -5.7336    1.0000 </r>
       <r>   -5.7336    1.0000 </r>
       <r>   -5.7335    1.0000 </r>
       <r>   -5.6627    1.0000 </r>
       <r>   -5.6627    1.0000 </r>
       <r>   -5.6474    1.0000 </r>
       <r>   -5.6473    1.0000 </r>
       <r>   -5.6473    1.0000 </r>
       <r>   -5.6473    1.0000 </r>
       <r>   -5.6315    1.0000 </r>
       <r>   -5.6315    1.0000 </r>
       <r>   -2.2093    1.0000 </r>
       <r>   -2.2078    1.0000 </r>
       <r>   -2.1831    1.0000 </r>
       <r>   -2.1826    1.0000 </r>
       <r>   -2.1824    1.0000 </r>
       <r>   -2.1819    1.0000 </r>
       <r>   -2.1507    1.0000 </r>
       <r>   -2.1492    1.0000 </r>
       <r>   -2.0820    1.0000 </r>
       <r>   -2.0813    1.0000 </r>
       <r>   -2.0813    1.0000 </r>
       <r>   -2.0806    1.0000 </r>
       <r>   -2.0382    1.0000 </r>
       <r>   -1.9522    1.0000 </r>
       <r>   -1.9515    1.0000 </r>
       <r>   -1.9514    1.0000 </r>
       <r>   -1.9508    1.0000 </r>
       <r>   -1.8963    1.0000 </r>
       <r>   -1.8956    1.0000 </r>
       <r>   -1.8954    1.0000 </r>
       <r>   -1.8947    1.0000 </r>
       <r>   -1.5156    1.0000 </r>
       <r>   -1.3440    1.0000 </r>
       <r>   -1.3433    1.0000 </r>
       <r>   -1.3433    1.0000 </r>
       <r>   -1.3426    1.0000 </r>
       <r>   -0.9712    1.0000 </r>
       <r>   -0.9704    1.0000 </r>
       <r>   -0.9704    1.0000 </r>
       <r>   -0.9696    1.0000 </r>
       <r>   -0.4512    1.0000 </r>
       <r>   -0.4512    1.0000 </r>
       <r>   -0.4511    1.0000 </r>
       <r>   -0.4511    1.0000 </r>
       <r>   -0.4012    1.0000 </r>
       <r>   -0.4011    1.0000 </r>
       <r>   -0.4010    1.0000 </r>
       <r>   -0.4009    1.0000 </r>
       <r>   -0.2084    1.0000 </r>
       <r>   -0.2083    1.0000 </r>
       <r>   -0.1039    1.0000 </r>
       <r>   -0.1039    1.0000 </r>
       <r>    0.0015    1.0000 </r>
       <r>    0.0016    1.0000 </r>
       <r>    0.0361    1.0000 </r>
       <r>    0.0361    1.0000 </r>
       <r>    0.0666    1.0000 </r>
       <r>    0.1704    1.0000 </r>
       <r>    0.1707    1.0000 </r>
       <r>    0.1712    1.0000 </r>
       <r>    0.1715    1.0000 </r>
       <r>    0.1870    1.0000 </r>
       <r>    0.1872    1.0000 </r>
       <r>    0.1872    1.0000 </r>
       <r>    0.1874    1.0000 </r>
       <r>    0.1966    1.0000 </r>
       <r>    0.1969    1.0000 </r>
       <r>    0.2438    1.0000 </r>
       <r>    0.2442    1.0000 </r>
       <r>    0.2442    1.0000 </r>
       <r>    0.2445    1.0000 </r>
       <r>    0.4395    1.0000 </r>
       <r>    0.4398    1.0000 </r>
       <r>    0.6303    1.0000 </r>
       <r>    0.6308    1.0000 </r>
       <r>    0.6308    1.0000 </r>
       <r>    0.6313    1.0000 </r>
       <r>    0.6834    1.0000 </r>
       <r>    0.6836    1.0000 </r>
       <r>    0.6836    1.0000 </r>
       <r>    0.6839    1.0000 </r>
       <r>    0.7556    1.0000 </r>
       <r>    0.7561    1.0000 </r>
       <r>    0.7561    1.0000 </r>
       <r>    0.7566    1.0000 </r>
       <r>    0.9362    1.0000 </r>
       <r>    0.9363    1.0000 </r>
       <r>    0.9363    1.0000 </r>
       <r>    0.9363    1.0000 </r>
       <r>    0.9938    1.0000 </r>
       <r>    1.0564    1.0000 </r>
       <r>    1.0570    1.0000 </r>
       <r>    1.0570    1.0000 </r>
       <r>    1.0576    1.0000 </r>
       <r>    1.0698    1.0000 </r>
       <r>    1.0703    1.0000 </r>
       <r>    1.0704    1.0000 </r>
       <r>    1.0709    1.0000 </r>
       <r>    1.1120    1.0000 </r>
       <r>    1.1122    1.0000 </r>
       <r>    1.1122    1.0000 </r>
       <r>    1.1123    1.0000 </r>
       <r>    1.2318    1.0000 </r>
       <r>    1.2322    1.0000 </r>
       <r>    1.6023    1.0000 </r>
       <r>    1.6028    1.0000 </r>
       <r>    3.1067    0.0000 </r>
       <r>    3.8407    0.0000 </r>
       <r>    3.8412    0.0000 </r>
       <r>    3.8414    0.0000 </r>
       <r>    3.8419    0.0000 </r>
       <r>    4.0250    0.0000 </r>
       <r>    4.4123    0.0000 </r>
       <r>    4.4488    0.0000 </r>
       <r>    4.4491    0.0000 </r>
       <r>    4.4493    0.0000 </r>
       <r>    4.4496    0.0000 </r>
       <r>    4.5185    0.0000 </r>
       <r>    4.6274    0.0000 </r>
       <r>    4.6292    0.0000 </r>
       <r>    4.6292    0.0000 </r>
       <r>    4.6309    0.0000 </r>
       <r>    4.6685    0.0000 </r>
       <r>    4.6821    0.0000 </r>
       <r>    4.6837    0.0000 </r>
       <r>    4.6837    0.0000 </r>
       <r>    4.6849    0.0000 </r>
       <r>    4.6931    0.0000 </r>
       <r>    4.6953    0.0000 </r>
       <r>    4.8072    0.0000 </r>
       <r>    4.8072    0.0000 </r>
       <r>    4.9273    0.0000 </r>
       <r>    5.0258    0.0000 </r>
       <r>    5.0270    0.0000 </r>
       <r>    5.0270    0.0000 </r>
       <r>    5.0282    0.0000 </r>
       <r>    5.3319    0.0000 </r>
       <r>    5.3341    0.0000 </r>
       <r>    5.4357    0.0000 </r>
       <r>    5.4360    0.0000 </r>
       <r>    5.4361    0.0000 </r>
       <r>    5.4365    0.0000 </r>
       <r>    5.4839    0.0000 </r>
       <r>    5.4851    0.0000 </r>
       <r>    5.4851    0.0000 </r>
       <r>    5.4863    0.0000 </r>
       <r>    5.5577    0.0000 </r>
       <r>    5.6057    0.0000 </r>
       <r>    5.6057    0.0000 </r>
       <r>    6.0966    0.0000 </r>
       <r>    6.2502    0.0000 </r>
       <r>    6.2504    0.0000 </r>
       <r>    6.2504    0.0000 </r>
       <r>    6.2506    0.0000 </r>
       <r>    6.5876    0.0000 </r>
       <r>    6.5880    0.0000 </r>
       <r>    6.5880    0.0000 </r>
       <r>    6.5883    0.0000 </r>
       <r>    6.6347    0.0000 </r>
       <r>    6.6351    0.0000 </r>
       <r>    6.7406    0.0000 </r>
       <r>    6.7408    0.0000 </r>
       <r>    6.7415    0.0000 </r>
       <r>    6.7417    0.0000 </r>
       <r>    6.8092    0.0000 </r>
       <r>    6.8095    0.0000 </r>
       <r>    6.8096    0.0000 </r>
       <r>    6.8100    0.0000 </r>
       <r>    6.8320    0.0000 </r>
       <r>    6.8324    0.0000 </r>
       <r>    6.8332    0.0000 </r>
       <r>    6.8336    0.0000 </r>
       <r>    7.0805    0.0000 </r>
       <r>    7.0809    0.0000 </r>
       <r>    7.0813    0.0000 </r>
       <r>    7.0817    0.0000 </r>
       <r>    7.0988    0.0000 </r>
       <r>    7.0990    0.0000 </r>
       <r>    7.0990    0.0000 </r>
       <r>    7.0992    0.0000 </r>
       <r>    7.1320    0.0000 </r>
       <r>    7.1323    0.0000 </r>
       <r>    7.1323    0.0000 </r>
       <r>    7.1326    0.0000 </r>
       <r>    7.1667    0.0000 </r>
       <r>    7.1671    0.0000 </r>
       <r>    7.1671    0.0000 </r>
       <r>    7.1674    0.0000 </r>
       <r>    7.2564    0.0000 </r>
       <r>    7.2567    0.0000 </r>
       <r>    7.3666    0.0000 </r>
       <r>    7.3668    0.0000 </r>
       <r>    7.3675    0.0000 </r>
       <r>    7.3677    0.0000 </r>
       <r>    7.5331    0.0000 </r>
       <r>    7.5333    0.0000 </r>
       <r>    7.5333    0.0000 </r>
       <r>    7.5334    0.0000 </r>
       <r>    7.7939    0.0000 </r>
       <r>    7.7942    0.0000 </r>
       <r>    7.7942    0.0000 </r>
       <r>    7.7945    0.0000 </r>
      </set>
      <set comment="kpoint 3">
       <r>   -9.0234    1.0000 </r>
       <r>   -8.9408    1.0000 </r>
       <r>   -8.8141    1.0000 </r>
       <r>   -8.8140    1.0000 </r>
       <r>   -8.8139    1.0000 </r>
       <r>   -8.8138    1.0000 </r>
       <r>   -8.7736    1.0000 </r>
       <r>   -8.7735    1.0000 </r>
       <r>   -8.7734    1.0000 </r>
       <r>   -8.7733    1.0000 </r>
       <r>   -8.7196    1.0000 </r>
       <r>   -8.7188    1.0000 </r>
       <r>   -8.7187    1.0000 </r>
       <r>   -8.7187    1.0000 </r>
       <r>   -8.7186    1.0000 </r>
       <r>   -8.7177    1.0000 </r>
       <r>   -8.7176    1.0000 </r>
       <r>   -8.7176    1.0000 </r>
       <r>   -8.7175    1.0000 </r>
       <r>   -8.6668    1.0000 </r>
       <r>   -8.6667    1.0000 </r>
       <r>   -8.6666    1.0000 </r>
       <r>   -8.6665    1.0000 </r>
       <r>   -8.6421    1.0000 </r>
       <r>   -8.6294    1.0000 </r>
       <r>   -8.6292    1.0000 </r>
       <r>   -8.6291    1.0000 </r>
       <r>   -8.6290    1.0000 </r>
       <r>   -8.6153    1.0000 </r>
       <r>   -8.6153    1.0000 </r>
       <r>   -8.6147    1.0000 </r>
       <r>   -8.6147    1.0000 </r>
       <r>   -6.3017    1.0000 </r>
       <r>   -6.3017    1.0000 </r>
       <r>   -6.2904    1.0000 </r>
       <r>   -6.2791    1.0000 </r>
       <r>   -6.2791    1.0000 </r>
       <r>   -6.2569    1.0000 </r>
       <r>   -6.2566    1.0000 </r>
       <r>   -6.2566    1.0000 </r>
       <r>   -6.2565    1.0000 </r>
       <r>   -6.2550    1.0000 </r>
       <r>   -6.2548    1.0000 </r>
       <r>   -6.2547    1.0000 </r>
       <r>   -6.2546    1.0000 </r>
       <r>   -6.2544    1.0000 </r>
       <r>   -6.2543    1.0000 </r>
       <r>   -6.2542    1.0000 </r>
       <r>   -6.2542    1.0000 </r>
       <r>   -6.2541    1.0000 </r>
       <r>   -6.2541    1.0000 </r>
       <r>   -6.2541    1.0000 </r>
       <r>   -6.2538    1.0000 </r>
       <r>   -6.2480    1.0000 </r>
       <r>   -6.2480    1.0000 </r>
       <r>   -6.2480    1.0000 </r>
       <r>   -6.2479    1.0000 </r>
       <r>   -6.2473    1.0000 </r>
       <r>   -6.2472    1.0000 </r>
       <r>   -6.2471    1.0000 </r>
       <r>   -6.2471    1.0000 </r>
       <r>   -6.2470    1.0000 </r>
       <r>   -6.2470    1.0000 </r>
       <r>   -6.2470    1.0000 </r>
       <r>   -6.2469    1.0000 </r>
       <r>   -6.2466    1.0000 </r>
       <r>   -6.2465    1.0000 </r>
       <r>   -6.2465    1.0000 </r>
       <r>   -6.2461    1.0000 </r>
       <r>   -6.2318    1.0000 </r>
       <r>   -6.2317    1.0000 </r>
       <r>   -6.2316    1.0000 </r>
       <r>   -6.2316    1.0000 </r>
       <r>   -6.2314    1.0000 </r>
       <r>   -6.2239    1.0000 </r>
       <r>   -6.2238    1.0000 </r>
       <r>   -6.2237    1.0000 </r>
       <r>   -6.2235    1.0000 </r>
       <r>   -6.2182    1.0000 </r>
       <r>   -6.2182    1.0000 </r>
       <r>   -6.2181    1.0000 </r>
       <r>   -6.2181    1.0000 </r>
       <r>   -6.2124    1.0000 </r>
       <r>   -6.2124    1.0000 </r>
       <r>   -6.2072    1.0000 </r>
       <r>   -6.2070    1.0000 </r>
       <r>   -6.2070    1.0000 </r>
       <r>   -6.2068    1.0000 </r>
       <r>   -6.2027    1.0000 </r>
       <r>   -6.2027    1.0000 </r>
       <r>   -6.1996    1.0000 </r>
       <r>   -6.1996    1.0000 </r>
       <r>   -6.1908    1.0000 </r>
       <r>   -6.1908    1.0000 </r>
       <r>   -6.1868    1.0000 </r>
       <r>   -6.1867    1.0000 </r>
       <r>   -6.1860    1.0000 </r>
       <r>   -6.1859    1.0000 </r>
       <r>   -6.1706    1.0000 </r>
       <r>   -6.1623    1.0000 </r>
       <r>   -6.1556    1.0000 </r>
       <r>   -6.1556    1.0000 </r>
       <r>   -6.1451    1.0000 </r>
       <r>   -6.1449    1.0000 </r>
       <r>   -6.1449    1.0000 </r>
       <r>   -6.1447    1.0000 </r>
       <r>   -6.1334    1.0000 </r>
       <r>   -6.1334    1.0000 </r>
       <r>   -6.1175    1.0000 </r>
       <r>   -6.1175    1.0000 </r>
       <r>   -6.1174    1.0000 </r>
       <r>   -6.1174    1.0000 </r>
       <r>   -6.1172    1.0000 </r>
       <r>   -6.1171    1.0000 </r>
       <r>   -6.1170    1.0000 </r>
       <r>   -6.1169    1.0000 </r>
       <r>   -6.1108    1.0000 </r>
       <r>   -6.1107    1.0000 </r>
       <r>   -6.1107    1.0000 </r>
       <r>   -6.1106    1.0000 </r>
       <r>   -6.1018    1.0000 </r>
       <r>   -6.0987    1.0000 </r>
       <r>   -6.0982    1.0000 </r>
       <r>   -6.0981    1.0000 </r>
       <r>   -6.0979    1.0000 </r>
       <r>   -6.0978    1.0000 </r>
       <r>   -6.0968    1.0000 </r>
       <r>   -6.0967    1.0000 </r>
       <r>   -6.0965    1.0000 </r>
       <r>   -6.0965    1.0000 </r>
       <r>   -6.0944    1.0000 </r>
       <r>   -6.0943    1.0000 </r>
       <r>   -6.0943    1.0000 </r>
       <r>   -6.0942    1.0000 </r>
       <r>   -6.0941    1.0000 </r>
       <r>   -6.0936    1.0000 </r>
       <r>   -6.0934    1.0000 </r>
       <r>   -6.0934    1.0000 </r>
       <r>   -6.0933    1.0000 </r>
       <r>   -6.0916    1.0000 </r>
       <r>   -6.0916    1.0000 </r>
       <r>   -6.0913    1.0000 </r>
       <r>   -6.0913    1.0000 </r>
       <r>   -6.0913    1.0000 </r>
       <r>   -6.0912    1.0000 </r>
       <r>   -6.0911    1.0000 </r>
       <r>   -6.0910    1.0000 </r>
       <r>   -6.0907    1.0000 </r>
       <r>   -6.0907    1.0000 </r>
       <r>   -6.0905    1.0000 </r>
       <r>   -6.0905    1.0000 </r>
       <r>   -6.0896    1.0000 </r>
       <r>   -6.0848    1.0000 </r>
       <r>   -6.0847    1.0000 </r>
       <r>   -6.0847    1.0000 </r>
       <r>   -6.0845    1.0000 </r>
       <r>   -6.0845    1.0000 </r>
       <r>   -6.0845    1.0000 </r>
       <r>   -6.0767    1.0000 </r>
       <r>   -6.0742    1.0000 </r>
       <r>   -6.0741    1.0000 </r>
       <r>   -6.0721    1.0000 </r>
       <r>   -6.0414    1.0000 </r>
       <r>   -6.0413    1.0000 </r>
       <r>   -6.0412    1.0000 </r>
       <r>   -6.0411    1.0000 </r>
       <r>   -5.9657    1.0000 </r>
       <r>   -5.9655    1.0000 </r>
       <r>   -5.9655    1.0000 </r>
       <r>   -5.9654    1.0000 </r>
       <r>   -5.9174    1.0000 </r>
       <r>   -5.8381    1.0000 </r>
       <r>   -5.8380    1.0000 </r>
       <r>   -5.8380    1.0000 </r>
       <r>   -5.8378    1.0000 </r>
       <r>   -5.8105    1.0000 </r>
       <r>   -5.8104    1.0000 </r>
       <r>   -5.8104    1.0000 </r>
       <r>   -5.8103    1.0000 </r>
       <r>   -5.7537    1.0000 </r>
       <r>   -5.7337    1.0000 </r>
       <r>   -5.7336    1.0000 </r>
       <r>   -5.7336    1.0000 </r>
       <r>   -5.7335    1.0000 </r>
       <r>   -5.6627    1.0000 </r>
       <r>   -5.6627    1.0000 </r>
       <r>   -5.6474    1.0000 </r>
       <r>   -5.6474    1.0000 </r>
       <r>   -5.6473    1.0000 </r>
       <r>   -5.6473    1.0000 </r>
       <r>   -5.6315    1.0000 </r>
       <r>   -5.6315    1.0000 </r>
       <r>   -2.2085    1.0000 </r>
       <r>   -2.2085    1.0000 </r>
       <r>   -2.1831    1.0000 </r>
       <r>   -2.1826    1.0000 </r>
       <r>   -2.1824    1.0000 </r>
       <r>   -2.1819    1.0000 </r>
       <r>   -2.1500    1.0000 </r>
       <r>   -2.1500    1.0000 </r>
       <r>   -2.0823    1.0000 </r>
[...]
      </set>
     </set>
    </set>
   </array>
  </eigenvalues>
  <separator name="orbital magnetization" >
   <v name="MAGDIPOLOUT">      0.00000000      0.00000000      0.00000000</v>
  </separator>
  <dos>
   <i name="efermi">      1.98695702 </i>
   <total>
    <array>
     <dimension dim="1">gridpoints</dimension>
     <dimension dim="2">spin</dimension>
     <field>energy</field>
     <field>total</field>
     <field>integrated</field>
     <set>
      <set comment="spin 1">
       <r>    -9.8974     0.0000     0.0000 </r>
       <r>    -9.8355     0.0000     0.0000 </r>
       <r>    -9.7737     0.0000     0.0000 </r>
       <r>    -9.7118     0.0000     0.0000 </r>
       <r>    -9.6499     0.0000     0.0000 </r>
       <r>    -9.5880     0.0000     0.0000 </r>
       <r>    -9.5261     0.0000     0.0000 </r>
       <r>    -9.4643     0.0000     0.0000 </r>
       <r>    -9.4024     0.0000     0.0000 </r>
       <r>    -9.3405     0.0000     0.0000 </r>
       <r>    -9.2786     0.0000     0.0000 </r>
       <r>    -9.2168     0.0000     0.0000 </r>
       <r>    -9.1549     0.0033     0.0002 </r>
       <r>    -9.0930     0.3737     0.0233 </r>
       <r>    -9.0311     6.1188     0.4019 </r>
       <r>    -8.9692    21.4226     1.7275 </r>
       <r>    -8.9074    40.9334     4.2604 </r>
       <r>    -8.8455    60.1617     7.9831 </r>
       <r>    -8.7836   102.2081    14.3074 </r>
       <r>    -8.7217   180.4136    25.4710 </r>
       <r>    -8.6599   304.9818    44.3426 </r>
       <r>    -8.5980   261.6860    60.5351 </r>
       <r>    -8.5361    54.6497    63.9166 </r>
       <r>    -8.4742     1.3444    63.9998 </r>
       <r>    -8.4124     0.0026    64.0000 </r>
       <r>    -8.3505     0.0000    64.0000 </r>
       <r>    -8.2886     0.0000    64.0000 </r>
       <r>    -8.2267     0.0000    64.0000 </r>
       <r>    -8.1648     0.0000    64.0000 </r>
       <r>    -8.1030     0.0000    64.0000 </r>
       <r>    -8.0411     0.0000    64.0000 </r>
       <r>    -7.9792     0.0000    64.0000 </r>
       <r>    -7.9173     0.0000    64.0000 </r>
       <r>    -7.8555     0.0000    64.0000 </r>
       <r>    -7.7936     0.0000    64.0000 </r>
       <r>    -7.7317     0.0000    64.0000 </r>
       <r>    -7.6698     0.0000    64.0000 </r>
       <r>    -7.6079     0.0000    64.0000 </r>
       <r>    -7.5461     0.0000    64.0000 </r>
       <r>    -7.4842     0.0000    64.0000 </r>
       <r>    -7.4223     0.0000    64.0000 </r>
       <r>    -7.3604     0.0000    64.0000 </r>
       <r>    -7.2986     0.0000    64.0000 </r>
       <r>    -7.2367     0.0000    64.0000 </r>
       <r>    -7.1748     0.0000    64.0000 </r>
       <r>    -7.1129     0.0000    64.0000 </r>
       <r>    -7.0510     0.0000    64.0000 </r>
       <r>    -6.9892     0.0000    64.0000 </r>
       <r>    -6.9273     0.0000    64.0000 </r>
       <r>    -6.8654     0.0000    64.0000 </r>
       <r>    -6.8035     0.0000    64.0000 </r>
       <r>    -6.7417     0.0000    64.0000 </r>
       <r>    -6.6798     0.0000    64.0000 </r>
       <r>    -6.6179     0.0000    64.0000 </r>
       <r>    -6.5560     0.0000    64.0000 </r>
       <r>    -6.4941     0.0000    64.0000 </r>
       <r>    -6.4323     0.0074    64.0005 </r>
       <r>    -6.3704     2.7439    64.1702 </r>
       <r>    -6.3085   110.3992    71.0015 </r>
       <r>    -6.2466   746.0928   117.1679 </r>
       <r>    -6.1848  1079.1221   183.9414 </r>
       <r>    -6.1229   864.7946   237.4529 </r>
       <r>    -6.0610  1161.0374   309.2951 </r>
       <r>    -5.9991   368.5308   332.0989 </r>
       <r>    -5.9372    80.0382   337.0515 </r>
       <r>    -5.8754    86.6646   342.4141 </r>
       <r>    -5.8135   121.0933   349.9071 </r>
       <r>    -5.7516   153.2058   359.3871 </r>
       <r>    -5.6897   189.5847   371.1181 </r>
       <r>    -5.6279   161.2135   381.0936 </r>
       <r>    -5.5660    44.8284   383.8675 </r>
       <r>    -5.5041     2.1304   383.9993 </r>
       <r>    -5.4422     0.0108   384.0000 </r>
       <r>    -5.3803     0.0000   384.0000 </r>
       <r>    -5.3185     0.0000   384.0000 </r>
       <r>    -5.2566     0.0000   384.0000 </r>
       <r>    -5.1947     0.0000   384.0000 </r>
       <r>    -5.1328     0.0000   384.0000 </r>
       <r>    -5.0710     0.0000   384.0000 </r>
       <r>    -5.0091     0.0000   384.0000 </r>
       <r>    -4.9472     0.0000   384.0000 </r>
       <r>    -4.8853     0.0000   384.0000 </r>
       <r>    -4.8234     0.0000   384.0000 </r>
       <r>    -4.7616     0.0000   384.0000 </r>
       <r>    -4.6997     0.0000   384.0000 </r>
       <r>    -4.6378     0.0000   384.0000 </r>
       <r>    -4.5759     0.0000   384.0000 </r>
       <r>    -4.5141     0.0000   384.0000 </r>
       <r>    -4.4522     0.0000   384.0000 </r>
       <r>    -4.3903     0.0000   384.0000 </r>
       <r>    -4.3284     0.0000   384.0000 </r>
       <r>    -4.2666     0.0000   384.0000 </r>
       <r>    -4.2047     0.0000   384.0000 </r>
       <r>    -4.1428     0.0000   384.0000 </r>
       <r>    -4.0809     0.0000   384.0000 </r>
       <r>    -4.0190     0.0000   384.0000 </r>
       <r>    -3.9572     0.0000   384.0000 </r>
       <r>    -3.8953     0.0000   384.0000 </r>
       <r>    -3.8334     0.0000   384.0000 </r>
       <r>    -3.7715     0.0000   384.0000 </r>
       <r>    -3.7097     0.0000   384.0000 </r>
       <r>    -3.6478     0.0000   384.0000 </r>
       <r>    -3.5859     0.0000   384.0000 </r>
       <r>    -3.5240     0.0000   384.0000 </r>
       <r>    -3.4621     0.0000   384.0000 </r>
       <r>    -3.4003     0.0000   384.0000 </r>
       <r>    -3.3384     0.0000   384.0000 </r>
       <r>    -3.2765     0.0000   384.0000 </r>
       <r>    -3.2146     0.0000   384.0000 </r>
       <r>    -3.1528     0.0000   384.0000 </r>
       <r>    -3.0909     0.0000   384.0000 </r>
       <r>    -3.0290     0.0000   384.0000 </r>
       <r>    -2.9671     0.0000   384.0000 </r>
       <r>    -2.9052     0.0000   384.0000 </r>
       <r>    -2.8434     0.0000   384.0000 </r>
       <r>    -2.7815     0.0000   384.0000 </r>
       <r>    -2.7196     0.0000   384.0000 </r>
       <r>    -2.6577     0.0000   384.0000 </r>
       <r>    -2.5959     0.0000   384.0000 </r>
       <r>    -2.5340     0.0000   384.0000 </r>
       <r>    -2.4721     0.0000   384.0000 </r>
       <r>    -2.4102     0.0040   384.0003 </r>
       <r>    -2.3483     0.3956   384.0247 </r>
       <r>    -2.2865     3.9193   384.2672 </r>
       <r>    -2.2246    24.9828   385.8131 </r>
       <r>    -2.1627    71.0373   390.2087 </r>
       <r>    -2.1008   137.7541   398.7326 </r>
       <r>    -2.0390   182.3252   410.0145 </r>
       <r>    -1.9771    71.2061   414.4206 </r>
       <r>    -1.9152    66.3985   418.5291 </r>
       <r>    -1.8533    60.4230   422.2680 </r>
       <r>    -1.7914    15.9770   423.2566 </r>
       <r>    -1.7296    24.5125   424.7734 </r>
       <r>    -1.6677    30.5102   426.6613 </r>
       <r>    -1.6058    27.6698   428.3734 </r>
       <r>    -1.5439    58.3833   431.9860 </r>
       <r>    -1.4821    23.5559   433.4436 </r>
       <r>    -1.4202     2.2096   433.5803 </r>
       <r>    -1.3583     9.2440   434.1523 </r>
       <r>    -1.2964    16.4420   435.1697 </r>
       <r>    -1.2345     4.2383   435.4320 </r>
       <r>    -1.1727    14.9598   436.3576 </r>
       <r>    -1.1108    19.6779   437.5753 </r>
       <r>    -1.0489    18.2605   438.7052 </r>
       <r>    -0.9870    12.0899   439.4533 </r>
       <r>    -0.9252    16.7351   440.4888 </r>
       <r>    -0.8633     3.8305   440.7258 </r>
       <r>    -0.8014     9.8270   441.3339 </r>
       <r>    -0.7395     9.7427   441.9367 </r>
       <r>    -0.6776     1.0286   442.0004 </r>
       <r>    -0.6158     2.1771   442.1351 </r>
       <r>    -0.5539    21.6955   443.4776 </r>
       <r>    -0.4920    30.8728   445.3879 </r>
       <r>    -0.4301    41.9184   447.9817 </r>
       <r>    -0.3683    45.7935   450.8153 </r>
       <r>    -0.3064    71.2280   455.2227 </r>
       <r>    -0.2445    74.4776   459.8312 </r>
       <r>    -0.1826    59.1450   463.4910 </r>
       <r>    -0.1207    79.3265   468.3995 </r>
       <r>    -0.0589    51.0429   471.5579 </r>
       <r>     0.0030    23.9243   473.0383 </r>
       <r>     0.0649    60.0300   476.7528 </r>
       <r>     0.1268    75.0267   481.3953 </r>
       <r>     0.1886    85.2740   486.6718 </r>
       <r>     0.2505    98.9184   492.7927 </r>
       <r>     0.3124    99.4120   498.9440 </r>
       <r>     0.3743    93.5642   504.7336 </r>
       <r>     0.4361    51.7811   507.9377 </r>
       <r>     0.4980    49.8001   511.0192 </r>
       <r>     0.5599    76.8152   515.7723 </r>
       <r>     0.6218    72.3586   520.2497 </r>
       <r>     0.6837   106.9441   526.8671 </r>
       <r>     0.7455    89.0783   532.3791 </r>
       <r>     0.8074    78.3645   537.2281 </r>
       <r>     0.8693    49.3439   540.2814 </r>
       <r>     0.9312    68.5510   544.5232 </r>
       <r>     0.9930    61.1786   548.3088 </r>
       <r>     1.0549    82.8816   553.4373 </r>
       <r>     1.1168   107.8904   560.1133 </r>
       <r>     1.1787    30.8144   562.0200 </r>
       <r>     1.2406    32.8283   564.0513 </r>
       <r>     1.3024    37.0510   566.3440 </r>
       <r>     1.3643    26.8764   568.0070 </r>
       <r>     1.4262    44.3833   570.7533 </r>
       <r>     1.4881    29.8933   572.6031 </r>
       <r>     1.5499    11.8731   573.3377 </r>
       <r>     1.6118    18.2665   574.4680 </r>
       <r>     1.6737    11.5245   575.1811 </r>
       <r>     1.7356     9.3687   575.7609 </r>
       <r>     1.7975     3.3922   575.9708 </r>
       <r>     1.8593     0.4656   575.9996 </r>
       <r>     1.9212     0.0070   576.0000 </r>
       <r>     1.9831     0.0000   576.0000 </r>
       <r>     2.0450     0.0000   576.0000 </r>
       <r>     2.1068     0.0000   576.0000 </r>
       <r>     2.1687     0.0000   576.0000 </r>
       <r>     2.2306     0.0058   576.0004 </r>
       <r>     2.2925     0.2360   576.0150 </r>
       <r>     2.3544     0.7399   576.0607 </r>
       <r>     2.4162     0.2108   576.0738 </r>
       <r>     2.4781     0.0046   576.0741 </r>
       <r>     2.5400     0.0000   576.0741 </r>
       <r>     2.6019     0.0000   576.0741 </r>
       <r>     2.6637     0.0000   576.0741 </r>
       <r>     2.7256     0.0000   576.0741 </r>
       <r>     2.7875     0.0000   576.0741 </r>
       <r>     2.8494     0.0000   576.0741 </r>
       <r>     2.9113     0.0000   576.0741 </r>
       <r>     2.9731     0.0006   576.0741 </r>
       <r>     3.0350     0.1524   576.0835 </r>
       <r>     3.0969     2.6534   576.2477 </r>
       <r>     3.1588     3.8705   576.4872 </r>
       <r>     3.2206     0.5013   576.5182 </r>
       <r>     3.2825     0.0833   576.5234 </r>
       <r>     3.3444     3.0124   576.7098 </r>
       <r>     3.4063    10.0926   577.3343 </r>
       <r>     3.4682     8.9093   577.8856 </r>
       <r>     3.5300     5.7902   578.2439 </r>
       <r>     3.5919     5.2807   578.5706 </r>
       <r>     3.6538     4.6839   578.8605 </r>
       <r>     3.7157     0.4619   578.8890 </r>
       <r>     3.7775     1.1081   578.9576 </r>
       <r>     3.8394    18.5929   580.1081 </r>
       <r>     3.9013    53.5838   583.4237 </r>
       <r>     3.9632    38.2191   585.7886 </r>
       <r>     4.0251    16.7664   586.8261 </r>
       <r>     4.0869    19.6881   588.0444 </r>
       <r>     4.1488     2.9777   588.2286 </r>
       <r>     4.2107     4.0849   588.4814 </r>
       <r>     4.2726    17.3970   589.5579 </r>
       <r>     4.3344    40.3092   592.0521 </r>
       <r>     4.3963    47.2258   594.9743 </r>
       <r>     4.4582    54.0089   598.3163 </r>
       <r>     4.5201    39.9951   600.7911 </r>
       <r>     4.5819    28.5687   602.5588 </r>
       <r>     4.6438    53.7070   605.8821 </r>
       <r>     4.7057    88.5258   611.3598 </r>
       <r>     4.7676    97.9850   617.4229 </r>
       <r>     4.8295   103.5111   623.8279 </r>
       <r>     4.8913    54.8306   627.2207 </r>
       <r>     4.9532    76.5160   631.9554 </r>
       <r>     5.0151    35.7307   634.1663 </r>
       <r>     5.0770    19.8236   635.3929 </r>
       <r>     5.1388    27.4749   637.0930 </r>
       <r>     5.2007    30.6318   638.9884 </r>
       <r>     5.2626    17.4831   640.0702 </r>
       <r>     5.3245    40.7381   642.5910 </r>
       <r>     5.3864    28.4207   644.3496 </r>
       <r>     5.4482    40.8652   646.8783 </r>
       <r>     5.5101    42.6443   649.5170 </r>
       <r>     5.5720    21.4333   650.8432 </r>
       <r>     5.6339    29.9081   652.6939 </r>
       <r>     5.6957    19.5856   653.9058 </r>
       <r>     5.7576    18.6718   655.0612 </r>
       <r>     5.8195    25.9412   656.6663 </r>
       <r>     5.8814    32.1005   658.6526 </r>
       <r>     5.9433    19.9959   659.8899 </r>
       <r>     6.0051    11.7935   660.6197 </r>
       <r>     6.0670     2.2267   660.7575 </r>
       <r>     6.1289     8.5502   661.2865 </r>
       <r>     6.1908    63.4761   665.2143 </r>
       <r>     6.2526   114.1564   672.2780 </r>
       <r>     6.3145    33.6102   674.3577 </r>
       <r>     6.3764     5.2905   674.6851 </r>
       <r>     6.4383    45.2588   677.4856 </r>
       <r>     6.5002    99.3735   683.6346 </r>
       <r>     6.5620    88.6004   689.1170 </r>
       <r>     6.6239    65.6663   693.1803 </r>
       <r>     6.6858    31.2765   695.1156 </r>
       <r>     6.7477    56.9140   698.6373 </r>
       <r>     6.8095    65.6675   702.7006 </r>
       <r>     6.8714    53.8281   706.0314 </r>
       <r>     6.9333    39.3013   708.4633 </r>
       <r>     6.9952    39.0775   710.8813 </r>
       <r>     7.0571    27.8711   712.6059 </r>
       <r>     7.1189    88.3015   718.0698 </r>
       <r>     7.1808   100.0784   724.2624 </r>
       <r>     7.2427    71.6300   728.6947 </r>
       <r>     7.3046    75.0330   733.3375 </r>
       <r>     7.3664   102.0532   739.6523 </r>
       <r>     7.4283    94.8539   745.5217 </r>
       <r>     7.4902    41.5566   748.0931 </r>
       <r>     7.5521    56.8465   751.6106 </r>
       <r>     7.6140    66.0082   755.6951 </r>
       <r>     7.6758    49.8575   758.7801 </r>
       <r>     7.7377    58.4066   762.3942 </r>
       <r>     7.7996    59.0128   766.0458 </r>
       <r>     7.8615    28.8448   767.8306 </r>
       <r>     7.9233     2.7112   767.9984 </r>
       <r>     7.9852     0.0265   768.0000 </r>
       <r>     8.0471     0.0000   768.0000 </r>
       <r>     8.1090     0.0000   768.0000 </r>
       <r>     8.1709     0.0000   768.0000 </r>
       <r>     8.2327     0.0000   768.0000 </r>
       <r>     8.2946     0.0000   768.0000 </r>
       <r>     8.3565     0.0000   768.0000 </r>
       <r>     8.4184     0.0000   768.0000 </r>
       <r>     8.4802     0.0000   768.0000 </r>
       <r>     8.5421     0.0000   768.0000 </r>
       <r>     8.6040     0.0000   768.0000 </r>
       <r>     8.6659     0.0000   768.0000 </r>
      </set>
     </set>
    </array>
   </total>
  </dos>
 </calculation>
 <structure name="finalpos" >
  <crystal>
   <varray name="basis" >
    <v>      13.25813485       0.00000000       0.00000000 </v>
    <v>       0.00000000      13.25813485       0.00000000 </v>
    <v>       0.00000000       0.00000000      13.25813485 </v>
   </varray>
   <i name="volume">   2330.49027860 </i>
   <varray name="rec_basis" >
    <v>       0.07542539       0.00000000       0.00000000 </v>
    <v>       0.00000000       0.07542539       0.00000000 </v>
    <v>       0.00000000       0.00000000       0.07542539 </v>
   </varray>
  </crystal>
  <varray name="positions" >
   <v>       0.00000000       0.00000000       0.00000000 </v>
   <v>       0.50000000       0.00000000       0.00000000 </v>
   <v>       0.00000000       0.50000000       0.00000000 </v>
   <v>       0.50000000       0.50000000       0.00000000 </v>
   <v>       0.00000000       0.00000000       0.50000000 </v>
   <v>       0.50000000       0.00000000       0.50000000 </v>
   <v>       0.00000000       0.50000000       0.50000000 </v>
   <v>       0.50000000       0.50000000       0.50000000 </v>
   <v>       0.00000000       0.25000000       0.25000000 </v>
   <v>       0.50000000       0.25000000       0.25000000 </v>
   <v>       0.00000000       0.75000000       0.25000000 </v>
   <v>       0.50000000       0.75000000       0.25000000 </v>
   <v>       0.00000000       0.25000000       0.75000000 </v>
   <v>       0.50000000       0.25000000       0.75000000 </v>
   <v>       0.00000000       0.75000000       0.75000000 </v>
   <v>       0.50000000       0.75000000       0.75000000 </v>
   <v>       0.25000000       0.00000000       0.25000000 </v>
   <v>       0.75000000       0.00000000       0.25000000 </v>
   <v>       0.25000000       0.50000000       0.25000000 </v>
   <v>       0.75000000       0.50000000       0.25000000 </v>
   <v>       0.25000000       0.00000000       0.75000000 </v>
   <v>       0.75000000       0.00000000       0.75000000 </v>
   <v>       0.25000000       0.50000000       0.75000000 </v>
   <v>       0.75000000       0.50000000       0.75000000 </v>
   <v>       0.25000000       0.25000000       0.00000000 </v>
   <v>       0.75000000       0.25000000       0.00000000 </v>
   <v>       0.25000000       0.75000000       0.00000000 </v>
   <v>       0.75000000       0.75000000       0.00000000 </v>
   <v>       0.25000000       0.25000000       0.50000000 </v>
   <v>       0.75000000       0.25000000       0.50000000 </v>
   <v>       0.25000000       0.75000000       0.50000000 </v>
   <v>       0.75000000       0.75000000       0.50000000 </v>
   <v>       0.12575425       0.12500000       0.12500000 </v>
   <v>       0.62500000       0.12500000       0.12500000 </v>
   <v>       0.12500000       0.62500000       0.12500000 </v>
   <v>       0.62500000       0.62500000       0.12500000 </v>
   <v>       0.12500000       0.12500000       0.62500000 </v>
   <v>       0.62500000       0.12500000       0.62500000 </v>
   <v>       0.12500000       0.62500000       0.62500000 </v>
   <v>       0.62500000       0.62500000       0.62500000 </v>
   <v>       0.12500000       0.37500000       0.37500000 </v>
   <v>       0.62500000       0.37500000       0.37500000 </v>
   <v>       0.12500000       0.87500000       0.37500000 </v>
   <v>       0.62500000       0.87500000       0.37500000 </v>
   <v>       0.12500000       0.37500000       0.87500000 </v>
   <v>       0.62500000       0.37500000       0.87500000 </v>
   <v>       0.12500000       0.87500000       0.87500000 </v>
   <v>       0.62500000       0.87500000       0.87500000 </v>
   <v>       0.37500000       0.12500000       0.37500000 </v>
   <v>       0.87500000       0.12500000       0.37500000 </v>
   <v>       0.37500000       0.62500000       0.37500000 </v>
   <v>       0.87500000       0.62500000       0.37500000 </v>
   <v>       0.37500000       0.12500000       0.87500000 </v>
   <v>       0.87500000       0.12500000       0.87500000 </v>
   <v>       0.37500000       0.62500000       0.87500000 </v>
   <v>       0.87500000       0.62500000       0.87500000 </v>
   <v>       0.37500000       0.37500000       0.12500000 </v>
   <v>       0.87500000       0.37500000       0.12500000 </v>
   <v>       0.37500000       0.87500000       0.12500000 </v>
   <v>       0.87500000       0.87500000       0.12500000 </v>
   <v>       0.37500000       0.37500000       0.62500000 </v>
   <v>       0.87500000       0.37500000       0.62500000 </v>
   <v>       0.37500000       0.87500000       0.62500000 </v>
   <v>       0.87500000       0.87500000       0.62500000 </v>
  </varray>
 </structure>
</modeling>
