<?xml version="1.0" encoding="ISO-8859-1"?>
<modeling>
 <generator>
  <i name="program" type="string">vasp </i>
  <i name="version" type="string">6.3.0  </i>
  <i name="subversion" type="string">20Jan22 (build Feb 10 2022 15:15:41) complex                          parallel </i>
  <i name="platform" type="string">LinuxIFC </i>
  <i name="date" type="string">2023 10 05 </i>
  <i name="time" type="string">11:44:30 </i>
 </generator>
 <incar>
  <i name="EDIFF">      0.00010000</i>
  <i name="ENCUT">    360.00000000</i>
  <i type="int" name="ISMEAR">     0</i>
  <i name="SIGMA">      0.05000000</i>
 </incar>
 <primitive_cell>
  <structure name="primitive_cell" >
   <crystal>
    <varray name="basis" >
     <v>      13.39071620       0.00000000       0.00000000 </v>
     <v>       0.00000000      13.39071620       0.00000000 </v>
     <v>       0.00000000       0.00000000      13.39071620 </v>
    </varray>
    <i name="volume">   2401.10646453 </i>
    <varray name="rec_basis" >
     <v>       0.07467860       0.00000000       0.00000000 </v>
     <v>       0.00000000       0.07467860       0.00000000 </v>
     <v>       0.00000000       0.00000000       0.07467860 </v>
    </varray>
   </crystal>
   <varray name="positions" >
    <v>       0.00000000       0.00000000       0.00000000 </v>
    <v>       0.50000000       0.00000000       0.00000000 </v>
    <v>       0.00000000       0.50000000       0.00000000 </v>
    <v>       0.50000000       0.50000000       0.00000000 </v>
    <v>       0.00000000       0.00000000       0.50000000 </v>
    <v>       0.50000000       0.00000000       0.50000000 </v>
    <v>       0.00000000       0.50000000       0.50000000 </v>
    <v>       0.50000000       0.50000000       0.50000000 </v>
    <v>       0.00000000       0.25000000       0.25000000 </v>
    <v>       0.50000000       0.25000000       0.25000000 </v>
    <v>       0.00000000       0.75000000       0.25000000 </v>
    <v>       0.50000000       0.75000000       0.25000000 </v>
    <v>       0.00000000       0.25000000       0.75000000 </v>
    <v>       0.50000000       0.25000000       0.75000000 </v>
    <v>       0.00000000       0.75000000       0.75000000 </v>
    <v>       0.50000000       0.75000000       0.75000000 </v>
    <v>       0.25000000       0.00000000       0.25000000 </v>
    <v>       0.75000000       0.00000000       0.25000000 </v>
    <v>       0.25000000       0.50000000       0.25000000 </v>
    <v>       0.75000000       0.50000000       0.25000000 </v>
    <v>       0.25000000       0.00000000       0.75000000 </v>
    <v>       0.75000000       0.00000000       0.75000000 </v>
    <v>       0.25000000       0.50000000       0.75000000 </v>
    <v>       0.75000000       0.50000000       0.75000000 </v>
    <v>       0.25000000       0.25000000       0.00000000 </v>
    <v>       0.75000000       0.25000000       0.00000000 </v>
    <v>       0.25000000       0.75000000       0.00000000 </v>
    <v>       0.75000000       0.75000000       0.00000000 </v>
    <v>       0.25000000       0.25000000       0.50000000 </v>
    <v>       0.75000000       0.25000000       0.50000000 </v>
    <v>       0.25000000       0.75000000       0.50000000 </v>
    <v>       0.75000000       0.75000000       0.50000000 </v>
    <v>       0.12574679       0.12500000       0.12500000 </v>
    <v>       0.62500000       0.12500000       0.12500000 </v>
    <v>       0.12500000       0.62500000       0.12500000 </v>
    <v>       0.62500000       0.62500000       0.12500000 </v>
    <v>       0.12500000       0.12500000       0.62500000 </v>
    <v>       0.62500000       0.12500000       0.62500000 </v>
    <v>       0.12500000       0.62500000       0.62500000 </v>
    <v>       0.62500000       0.62500000       0.62500000 </v>
    <v>       0.12500000       0.37500000       0.37500000 </v>
    <v>       0.62500000       0.37500000       0.37500000 </v>
    <v>       0.12500000       0.87500000       0.37500000 </v>
    <v>       0.62500000       0.87500000       0.37500000 </v>
    <v>       0.12500000       0.37500000       0.87500000 </v>
    <v>       0.62500000       0.37500000       0.87500000 </v>
    <v>       0.12500000       0.87500000       0.87500000 </v>
    <v>       0.62500000       0.87500000       0.87500000 </v>
    <v>       0.37500000       0.12500000       0.37500000 </v>
    <v>       0.87500000       0.12500000       0.37500000 </v>
    <v>       0.37500000       0.62500000       0.37500000 </v>
    <v>       0.87500000       0.62500000       0.37500000 </v>
    <v>       0.37500000       0.12500000       0.87500000 </v>
    <v>       0.87500000       0.12500000       0.87500000 </v>
    <v>       0.37500000       0.62500000       0.87500000 </v>
    <v>       0.87500000       0.62500000       0.87500000 </v>
    <v>       0.37500000       0.37500000       0.12500000 </v>
    <v>       0.87500000       0.37500000       0.12500000 </v>
    <v>       0.37500000       0.87500000       0.12500000 </v>
    <v>       0.87500000       0.87500000       0.12500000 </v>
    <v>       0.37500000       0.37500000       0.62500000 </v>
    <v>       0.87500000       0.37500000       0.62500000 </v>
    <v>       0.37500000       0.87500000       0.62500000 </v>
    <v>       0.87500000       0.87500000       0.62500000 </v>
   </varray>
  </structure>
  <varray name="primitive_index" >
   <v type="int" >        1 </v>
   <v type="int" >        2 </v>
   <v type="int" >        3 </v>
   <v type="int" >        4 </v>
   <v type="int" >        5 </v>
   <v type="int" >        6 </v>
   <v type="int" >        7 </v>
   <v type="int" >        8 </v>
   <v type="int" >        9 </v>
   <v type="int" >       10 </v>
   <v type="int" >       11 </v>
   <v type="int" >       12 </v>
   <v type="int" >       13 </v>
   <v type="int" >       14 </v>
   <v type="int" >       15 </v>
   <v type="int" >       16 </v>
   <v type="int" >       17 </v>
   <v type="int" >       18 </v>
   <v type="int" >       19 </v>
   <v type="int" >       20 </v>
   <v type="int" >       21 </v>
   <v type="int" >       22 </v>
   <v type="int" >       23 </v>
   <v type="int" >       24 </v>
   <v type="int" >       25 </v>
   <v type="int" >       26 </v>
   <v type="int" >       27 </v>
   <v type="int" >       28 </v>
   <v type="int" >       29 </v>
   <v type="int" >       30 </v>
   <v type="int" >       31 </v>
   <v type="int" >       32 </v>
   <v type="int" >       33 </v>
   <v type="int" >       34 </v>
   <v type="int" >       35 </v>
   <v type="int" >       36 </v>
   <v type="int" >       37 </v>
   <v type="int" >       38 </v>
   <v type="int" >       39 </v>
   <v type="int" >       40 </v>
   <v type="int" >       41 </v>
   <v type="int" >       42 </v>
   <v type="int" >       43 </v>
   <v type="int" >       44 </v>
   <v type="int" >       45 </v>
   <v type="int" >       46 </v>
   <v type="int" >       47 </v>
   <v type="int" >       48 </v>
   <v type="int" >       49 </v>
   <v type="int" >       50 </v>
   <v type="int" >       51 </v>
   <v type="int" >       52 </v>
   <v type="int" >       53 </v>
   <v type="int" >       54 </v>
   <v type="int" >       55 </v>
   <v type="int" >       56 </v>
   <v type="int" >       57 </v>
   <v type="int" >       58 </v>
   <v type="int" >       59 </v>
   <v type="int" >       60 </v>
   <v type="int" >       61 </v>
   <v type="int" >       62 </v>
   <v type="int" >       63 </v>
   <v type="int" >       64 </v>
  </varray>
 </primitive_cell>
 <kpoints>
  <generation param="Gamma">
   <v type="int" name="divisions">       3        3        3 </v>
   <v name="usershift">      0.00000000       0.00000000       0.00000000 </v>
   <v name="genvec1">      0.33333333       0.00000000       0.00000000 </v>
   <v name="genvec2">      0.00000000       0.33333333       0.00000000 </v>
   <v name="genvec3">      0.00000000       0.00000000       0.33333333 </v>
   <v name="shift">      0.00000000       0.00000000       0.00000000 </v>
  </generation>
  <varray name="kpointlist" >
   <v>       0.00000000       0.00000000       0.00000000 </v>
   <v>       0.33333333       0.00000000       0.00000000 </v>
   <v>       0.00000000       0.33333333       0.00000000 </v>
   <v>       0.33333333       0.33333333       0.00000000 </v>
   <v>       0.00000000       0.33333333       0.33333333 </v>
   <v>       0.00000000      -0.33333333       0.33333333 </v>
   <v>       0.33333333       0.33333333       0.33333333 </v>
   <v>      -0.33333333      -0.33333333       0.33333333 </v>
  </varray>
  <varray name="weights" >
   <v>       0.03703704 </v>
   <v>       0.07407407 </v>
   <v>       0.14814815 </v>
   <v>       0.29629630 </v>
   <v>       0.07407407 </v>
   <v>       0.07407407 </v>
   <v>       0.14814815 </v>
   <v>       0.14814815 </v>
  </varray>
 </kpoints>
 <parameters>
  <separator name="general" >
   <i type="string" name="SYSTEM">unknown system</i>
   <i type="logical" name="LCOMPAT"> F  </i>
  </separator>
  <separator name="electronic" >
   <i type="string" name="PREC">normal</i>
   <i name="ENMAX">    360.00000000</i>
   <i name="ENAUG">    456.10600000</i>
   <i name="EDIFF">      0.00010000</i>
   <i type="int" name="IALGO">    38</i>
   <i type="int" name="IWAVPR">    10</i>
   <i type="int" name="NBANDS">   384</i>
   <i type="int" name="NBANDSLOW">    -1</i>
   <i type="int" name="NBANDSHIGH">    -1</i>
   <i name="NELECT">    576.00000000</i>
   <i type="int" name="TURBO">     0</i>
   <i type="int" name="IRESTART">     0</i>
   <i type="int" name="NREBOOT">     0</i>
   <i type="int" name="NMIN">     0</i>
   <i name="EREF">      0.00000000</i>
   <separator name="electronic smearing" >
    <i type="int" name="ISMEAR">     0</i>
    <i name="SIGMA">      0.05000000</i>
    <i name="KSPACING">      0.50000000</i>
    <i type="logical" name="KGAMMA"> T  </i>
    <i type="logical" name="KBLOWUP"> T  </i>
   </separator>
   <separator name="electronic projectors" >
    <i type="logical" name="LREAL"> F  </i>
    <v name="ROPT">      0.00000000      0.00000000</v>
    <i type="int" name="LMAXPAW">  -100</i>
    <i type="int" name="LMAXMIX">     2</i>
    <i type="logical" name="NLSPLINE"> F  </i>
   </separator>
   <separator name="electronic startup" >
    <i type="int" name="ISTART">     0</i>
    <i type="int" name="ICHARG">     2</i>
    <i type="int" name="INIWAV">     1</i>
   </separator>
   <separator name="electronic spin" >
    <i type="int" name="ISPIN">     1</i>
    <i type="logical" name="LNONCOLLINEAR"> F  </i>
    <v name="MAGMOM">      1.00000000      1.00000000      1.00000000      1.00000000      1.00000000      1.00000000      1.00000000      1.00000000      1.00000000      1.00000000      1.00000000      1.00000000      1.00000000      1.00000000      1.00000000      1.00000000      1.00000000      1.00000000      1.00000000      1.00000000
      1.00000000      1.00000000      1.00000000      1.00000000      1.00000000      1.00000000      1.00000000      1.00000000      1.00000000      1.00000000      1.00000000      1.00000000      1.00000000      1.00000000      1.00000000      1.00000000      1.00000000      1.00000000      1.00000000      1.00000000
      1.00000000      1.00000000      1.00000000      1.00000000      1.00000000      1.00000000      1.00000000      1.00000000      1.00000000      1.00000000      1.00000000      1.00000000      1.00000000      1.00000000      1.00000000      1.00000000      1.00000000      1.00000000      1.00000000      1.00000000
      1.00000000      1.00000000      1.00000000      1.00000000</v>
    <i name="NUPDOWN">     -1.00000000</i>
    <i type="logical" name="LSORBIT"> F  </i>
    <v name="SAXIS">      0.00000000      0.00000000      1.00000000</v>
    <i type="logical" name="LSPIRAL"> F  </i>
    <v name="QSPIRAL">      0.00000000      0.00000000      0.00000000</v>
    <i type="logical" name="LZEROZ"> F  </i>
   </separator>
   <separator name="electronic exchange-correlation" >
    <i type="logical" name="LASPH"> F  </i>
    <i type="logical" name="LMETAGGA"> F  </i>
   </separator>
   <separator name="electronic convergence" >
    <i type="int" name="NELM">    60</i>
    <i type="int" name="NELMDL">    -5</i>
    <i type="int" name="NELMIN">     2</i>
    <i name="ENINI">    360.00000000</i>
    <separator name="electronic convergence detail" >
     <i type="logical" name="LDIAG"> T  </i>
     <i type="logical" name="LSUBROT"> F  </i>
     <i name="WEIMIN">      0.00000000</i>
     <i name="EBREAK">      0.00000007</i>
     <i name="DEPER">      0.30000000</i>
     <i type="int" name="NRMM">     4</i>
     <i name="TIME">      0.40000000</i>
    </separator>
   </separator>
   <separator name="electronic mixer" >
    <i name="AMIX">      0.40000000</i>
    <i name="BMIX">      1.00000000</i>
    <i name="AMIN">      0.10000000</i>
    <i name="AMIX_MAG">      1.60000000</i>
    <i name="BMIX_MAG">      1.00000000</i>
    <separator name="electronic mixer details" >
     <i type="int" name="IMIX">     4</i>
     <i type="logical" name="MIXFIRST"> F  </i>
     <i type="int" name="MAXMIX">   -45</i>
     <i name="WC">    100.00000000</i>
     <i type="int" name="INIMIX">     1</i>
     <i type="int" name="MIXPRE">     1</i>
     <i type="int" name="MREMOVE">     5</i>
    </separator>
   </separator>
   <separator name="electronic dipolcorrection" >
    <i type="logical" name="LDIPOL"> F  </i>
    <i type="logical" name="LMONO"> F  </i>
    <i type="int" name="IDIPOL">     0</i>
    <i name="EPSILON">      1.00000000</i>
    <v name="DIPOL">   -100.00000000   -100.00000000   -100.00000000</v>
    <i name="EFIELD">      0.00000000</i>
   </separator>
  </separator>
  <separator name="grids" >
   <i type="int" name="NGX">    64</i>
   <i type="int" name="NGY">    64</i>
   <i type="int" name="NGZ">    64</i>
   <i type="int" name="NGXF">   128</i>
   <i type="int" name="NGYF">   128</i>
   <i type="int" name="NGZF">   128</i>
   <i type="logical" name="ADDGRID"> F  </i>
  </separator>
  <separator name="ionic" >
   <i type="int" name="NSW">     0</i>
   <i type="int" name="IBRION">    -1</i>
   <i type="int" name="MDALGO">     0</i>
   <i type="int" name="ISIF">     2</i>
   <i name="PSTRESS">      0.00000000</i>
   <i name="EDIFFG">      0.00100000</i>
   <i type="int" name="NFREE">     0</i>
   <i name="POTIM">      0.50000000</i>
   <i name="SMASS">     -3.00000000</i>
   <i name="SCALEE">      1.00000000</i>
  </separator>
  <separator name="ionic md" >
   <i name="TEBEG">      0.00010000</i>
   <i name="TEEND">      0.00010000</i>
   <i type="int" name="NBLOCK">     1</i>
   <i type="int" name="KBLOCK">     1</i>
   <i type="int" name="NPACO">   256</i>
   <i name="APACO">     10.00000000</i>
  </separator>
  <separator name="symmetry" >
   <i type="int" name="ISYM">     2</i>
   <i name="SYMPREC">      0.00001000</i>
  </separator>
  <separator name="dos" >
   <i type="int" name="LORBIT">     0</i>
   <v name="RWIGS">     -1.00000000     -1.00000000</v>
   <i type="int" name="NEDOS">   301</i>
   <i name="EMIN">     10.00000000</i>
   <i name="EMAX">    -10.00000000</i>
   <i name="EFERMI">      0.00000000</i>
  </separator>
  <separator name="writing" >
   <i type="int" name="NWRITE">     2</i>
   <i type="logical" name="LWAVE"> T  </i>
   <i type="logical" name="LDOWNSAMPLE"> F  </i>
   <i type="logical" name="LCHARG"> T  </i>
   <i type="logical" name="LPARD"> F  </i>
   <i type="logical" name="LVTOT"> F  </i>
   <i type="logical" name="LVHAR"> F  </i>
   <i type="logical" name="LELF"> F  </i>
   <i type="logical" name="LOPTICS"> F  </i>
   <v name="STM">      0.00000000      0.00000000      0.00000000      0.00000000      0.00000000      0.00000000      0.00000000</v>
  </separator>
  <separator name="performance" >
   <i type="int" name="NPAR">    48</i>
   <i type="int" name="NSIM">     4</i>
   <i type="int" name="NBLK">    -1</i>
   <i type="logical" name="LPLANE"> T  </i>
   <i type="logical" name="LSCALAPACK"> T  </i>
   <i type="logical" name="LSCAAWARE"> F  </i>
   <i type="logical" name="LSCALU"> F  </i>
   <i type="logical" name="LASYNC"> F  </i>
   <i type="logical" name="LORBITALREAL"> F  </i>
  </separator>
  <separator name="miscellaneous" >
   <i type="int" name="IDIOT">     3</i>
   <i type="int" name="PHON_NSTRUCT">    -1</i>
   <i type="logical" name="LMUSIC"> F  </i>
   <v name="POMASS">    112.41100000    127.60000000</v>
   <v name="DARWINR">      0.00000000      0.00000000</v>
   <v name="DARWINV">      1.00000000      1.00000000</v>
   <i type="logical" name="LCORR"> T  </i>
  </separator>
  <i type="logical" name="GGA_COMPAT"> T  </i>
  <i type="logical" name="LBERRY"> F  </i>
  <i type="int" name="ICORELEVEL">     0</i>
  <i type="logical" name="LDAU"> F  </i>
  <i type="int" name="I_CONSTRAINED_M">     0</i>
  <separator name="electronic exchange-correlation" >
   <i type="string" name="GGA">--</i>
   <i type="int" name="VOSKOWN">     0</i>
   <i type="logical" name="LHFCALC"> F  </i>
   <i type="string" name="PRECFOCK"></i>
   <i type="logical" name="LSYMGRAD"> F  </i>
   <i type="logical" name="LHFONE"> F  </i>
   <i type="logical" name="LRHFCALC"> F  </i>
   <i type="logical" name="LTHOMAS"> F  </i>
   <i type="logical" name="LMODELHF"> F  </i>
   <i type="logical" name="LFOCKACE"> F  </i>
   <i name="ENCUT4O">     -1.00000000</i>
   <i type="int" name="EXXOEP">     0</i>
   <i type="int" name="FOURORBIT">     0</i>
   <i name="AEXX">      0.00000000</i>
   <i name="HFALPHA">      0.00000000</i>
   <i name="MCALPHA">      0.00000000</i>
   <i name="ALDAX">      1.00000000</i>
   <i name="AGGAX">      1.00000000</i>
   <i name="ALDAC">      1.00000000</i>
   <i name="AGGAC">      1.00000000</i>
   <i type="int" name="NKREDX">     1</i>
   <i type="int" name="NKREDY">     1</i>
   <i type="int" name="NKREDZ">     1</i>
   <i type="logical" name="SHIFTRED"> F  </i>
   <i type="logical" name="ODDONLY"> F  </i>
   <i type="logical" name="EVENONLY"> F  </i>
   <i type="int" name="LMAXFOCK">     0</i>
   <i type="int" name="NMAXFOCKAE">     0</i>
   <i type="logical" name="LFOCKAEDFT"> F  </i>
   <i name="HFSCREEN">      0.00000000</i>
   <i name="HFSCREENC">      0.00000000</i>
   <i type="int" name="NBANDSGWLOW">     0</i>
  </separator>
  <separator name="vdW DFT" >
   <i type="logical" name="LUSE_VDW"> F  </i>
   <i name="Zab_VDW">     -0.84910000</i>
   <i name="PARAM1">      0.12340000</i>
   <i name="PARAM2">      1.00000000</i>
   <i name="PARAM3">      0.00000000</i>
  </separator>
  <separator name="model GW" >
   <i type="int" name="MODEL_GW">     0</i>
   <i name="MODEL_EPS0">     22.51037310</i>
   <i name="MODEL_ALPHA">      1.00000000</i>
  </separator>
  <separator name="linear response parameters" >
   <i type="logical" name="LEPSILON"> F  </i>
   <i type="logical" name="LRPA"> F  </i>
   <i type="logical" name="LNABLA"> F  </i>
   <i type="logical" name="LVEL"> F  </i>
   <i name="CSHIFT">      0.10000000</i>
   <i name="OMEGAMAX">     -1.00000000</i>
   <i name="DEG_THRESHOLD">      0.00200000</i>
   <i name="RTIME">     -0.10000000</i>
   <i name="WPLASMAI">      0.00000000</i>
   <v name="DFIELD">      0.00000000      0.00000000      0.00000000</v>
   <v name="WPLASMA">      0.00000000      0.00000000      0.00000000      0.00000000      0.00000000      0.00000000      0.00000000      0.00000000      0.00000000</v>
  </separator>
  <separator name="orbital magnetization" >
   <i type="logical" name="NUCIND"> F  </i>
   <v name="MAGPOS">      0.00000000      0.00000000      0.00000000</v>
   <i type="logical" name="LNICSALL"> T  </i>
   <i type="logical" name="ORBITALMAG"> F  </i>
   <i type="logical" name="LMAGBLOCH"> F  </i>
   <i type="logical" name="LCHIMAG"> F  </i>
   <i type="logical" name="LGAUGE"> T  </i>
   <i type="int" name="MAGATOM">     0</i>
   <v name="MAGDIPOL">      0.00000000      0.00000000      0.00000000</v>
   <v name="AVECCONST">      0.00000000      0.00000000      0.00000000</v>
  </separator>
  <separator name="response functions" >
   <i type="logical" name="LFINITE_TEMPERATURE"> F  </i>
   <i type="logical" name="LADDER"> F  </i>
   <i type="logical" name="LRPAFORCE"> F  </i>
   <i type="logical" name="LFXC"> F  </i>
   <i type="logical" name="LHARTREE"> T  </i>
   <i type="int" name="IBSE">     0</i>
   <v type="int" name="KPOINT">    -1     0     0     0</v>
   <i type="logical" name="LTCTC"> F  </i>
   <i type="logical" name="LTCTE"> F  </i>
   <i type="logical" name="LTETE"> F  </i>
   <i type="logical" name="LTRIPLET"> F  </i>
   <i type="logical" name="LFXCEPS"> F  </i>
   <i type="logical" name="LFXHEG"> F  </i>
   <i type="int" name="NATURALO">     2</i>
   <i type="logical" name="LHOLEGF"> F  </i>
   <i type="logical" name="L2ORDER"> F  </i>
   <i type="logical" name="LDMP1"> F  </i>
   <i type="logical" name="LMP2LT"> F  </i>
   <i type="logical" name="LSMP2LT"> F  </i>
   <i type="logical" name="LGWLF"> F  </i>
   <i name="ENCUTGW">     -2.00000000</i>
   <i name="ENCUTGWSOFT">     -2.00000000</i>
   <i name="ENCUTLF">     -1.00000000</i>
   <i type="logical" name="LESF_SPLINES"> F  </i>
   <i type="int" name="LMAXMP2">    -1</i>
   <i name="SCISSOR">      0.00000000</i>
   <i type="int" name="NOMEGA">     0</i>
   <i type="int" name="NOMEGAR">     0</i>
   <i type="int" name="NBANDSGW">    -1</i>
   <i type="int" name="NBANDSO">    -1</i>
   <i type="int" name="NBANDSV">    -1</i>
   <i type="int" name="NELMGW">     1</i>
   <i type="int" name="NELMHF">     1</i>
   <i type="int" name="DIM">     3</i>
   <i type="int" name="IESPILON">     4</i>
   <i type="int" name="ANTIRES">     0</i>
   <i name="OMEGAMAX">    -30.00000000</i>
   <i name="OMEGAMIN">    -30.00000000</i>
   <i name="OMEGATL">   -200.00000000</i>
   <i type="int" name="OMEGAGRID">     0</i>
   <i name="CSHIFT">     -0.10000000</i>
   <i type="logical" name="LSELFENERGY"> F  </i>
   <i type="logical" name="LSPECTRAL"> F  </i>
   <i type="logical" name="LSPECTRALGW"> F  </i>
   <i type="logical" name="LSINGLES"> F  </i>
   <i type="logical" name="LFERMIGW"> F  </i>
   <i type="logical" name="ODDONLYGW"> F  </i>
   <i type="logical" name="EVENONLYGW"> F  </i>
   <i type="int" name="NKREDLFX">     1</i>
   <i type="int" name="NKREDLFY">     1</i>
   <i type="int" name="NKREDLFZ">     1</i>
   <i type="int" name="MAXMEM">  2800</i>
   <i type="int" name="TELESCOPE">     0</i>
   <i type="int" name="NTAUPAR">    -1</i>
   <i type="int" name="NOMEGAPAR">    -1</i>
   <i name="DAMP_NEWTON">      0.80000001</i>
   <i name="LAMBDA">      1.00000000</i>
  </separator>
  <separator name="External order field" >
   <i name="OFIELD_KAPPA">      0.00000000</i>
   <v name="OFIELD_K">      0.00000000      0.00000000      0.00000000</v>
   <i name="OFIELD_Q6_NEAR">      0.00000000</i>
   <i name="OFIELD_Q6_FAR">      0.00000000</i>
   <i name="OFIELD_A">      0.00000000</i>
  </separator>
  <separator name="optional k-points parameters" >
   <i type="int" name="KPOINTS_OPT_MODE">     1</i>
   <i type="logical" name="LKPOINTS_OPT"> F  </i>
  </separator>
 </parameters>
 <atominfo>
  <atoms>      64 </atoms>
  <types>       2 </types>
  <array name="atoms" >
   <dimension dim="1">ion</dimension>
   <field type="string">element</field>
   <field type="int">atomtype</field>
   <set>
    <rc><c>Cd</c><c>   1</c></rc>
    <rc><c>Cd</c><c>   1</c></rc>
    <rc><c>Cd</c><c>   1</c></rc>
    <rc><c>Cd</c><c>   1</c></rc>
    <rc><c>Cd</c><c>   1</c></rc>
    <rc><c>Cd</c><c>   1</c></rc>
    <rc><c>Cd</c><c>   1</c></rc>
    <rc><c>Cd</c><c>   1</c></rc>
    <rc><c>Cd</c><c>   1</c></rc>
    <rc><c>Cd</c><c>   1</c></rc>
    <rc><c>Cd</c><c>   1</c></rc>
    <rc><c>Cd</c><c>   1</c></rc>
    <rc><c>Cd</c><c>   1</c></rc>
    <rc><c>Cd</c><c>   1</c></rc>
    <rc><c>Cd</c><c>   1</c></rc>
    <rc><c>Cd</c><c>   1</c></rc>
    <rc><c>Cd</c><c>   1</c></rc>
    <rc><c>Cd</c><c>   1</c></rc>
    <rc><c>Cd</c><c>   1</c></rc>
    <rc><c>Cd</c><c>   1</c></rc>
    <rc><c>Cd</c><c>   1</c></rc>
    <rc><c>Cd</c><c>   1</c></rc>
    <rc><c>Cd</c><c>   1</c></rc>
    <rc><c>Cd</c><c>   1</c></rc>
    <rc><c>Cd</c><c>   1</c></rc>
    <rc><c>Cd</c><c>   1</c></rc>
    <rc><c>Cd</c><c>   1</c></rc>
    <rc><c>Cd</c><c>   1</c></rc>
    <rc><c>Cd</c><c>   1</c></rc>
    <rc><c>Cd</c><c>   1</c></rc>
    <rc><c>Cd</c><c>   1</c></rc>
    <rc><c>Cd</c><c>   1</c></rc>
    <rc><c>Te</c><c>   2</c></rc>
    <rc><c>Te</c><c>   2</c></rc>
    <rc><c>Te</c><c>   2</c></rc>
    <rc><c>Te</c><c>   2</c></rc>
    <rc><c>Te</c><c>   2</c></rc>
    <rc><c>Te</c><c>   2</c></rc>
    <rc><c>Te</c><c>   2</c></rc>
    <rc><c>Te</c><c>   2</c></rc>
    <rc><c>Te</c><c>   2</c></rc>
    <rc><c>Te</c><c>   2</c></rc>
    <rc><c>Te</c><c>   2</c></rc>
    <rc><c>Te</c><c>   2</c></rc>
    <rc><c>Te</c><c>   2</c></rc>
    <rc><c>Te</c><c>   2</c></rc>
    <rc><c>Te</c><c>   2</c></rc>
    <rc><c>Te</c><c>   2</c></rc>
    <rc><c>Te</c><c>   2</c></rc>
    <rc><c>Te</c><c>   2</c></rc>
    <rc><c>Te</c><c>   2</c></rc>
    <rc><c>Te</c><c>   2</c></rc>
    <rc><c>Te</c><c>   2</c></rc>
    <rc><c>Te</c><c>   2</c></rc>
    <rc><c>Te</c><c>   2</c></rc>
    <rc><c>Te</c><c>   2</c></rc>
    <rc><c>Te</c><c>   2</c></rc>
    <rc><c>Te</c><c>   2</c></rc>
    <rc><c>Te</c><c>   2</c></rc>
    <rc><c>Te</c><c>   2</c></rc>
    <rc><c>Te</c><c>   2</c></rc>
    <rc><c>Te</c><c>   2</c></rc>
    <rc><c>Te</c><c>   2</c></rc>
    <rc><c>Te</c><c>   2</c></rc>
   </set>
  </array>
  <array name="atomtypes" >
   <dimension dim="1">type</dimension>
   <field type="int">atomspertype</field>
   <field type="string">element</field>
   <field>mass</field>
   <field>valence</field>
   <field type="string">pseudopotential</field>
   <set>
    <rc><c>  32</c><c>Cd</c><c>    112.41100000</c><c>     12.00000000</c><c>  PAW_PBE Cd 06Sep2000                  </c></rc>
    <rc><c>  32</c><c>Te</c><c>    127.60000000</c><c>      6.00000000</c><c>  PAW_PBE Te 08Apr2002                  </c></rc>
   </set>
  </array>
 </atominfo>
 <structure name="initialpos" >
  <crystal>
   <varray name="basis" >
    <v>      13.39071620       0.00000000       0.00000000 </v>
    <v>       0.00000000      13.39071620       0.00000000 </v>
    <v>       0.00000000       0.00000000      13.39071620 </v>
   </varray>
   <i name="volume">   2401.10646453 </i>
   <varray name="rec_basis" >
    <v>       0.07467860       0.00000000       0.00000000 </v>
    <v>       0.00000000       0.07467860       0.00000000 </v>
    <v>       0.00000000       0.00000000       0.07467860 </v>
   </varray>
  </crystal>
  <varray name="positions" >
   <v>       0.00000000       0.00000000       0.00000000 </v>
   <v>       0.50000000       0.00000000       0.00000000 </v>
   <v>       0.00000000       0.50000000       0.00000000 </v>
   <v>       0.50000000       0.50000000       0.00000000 </v>
   <v>       0.00000000       0.00000000       0.50000000 </v>
   <v>       0.50000000       0.00000000       0.50000000 </v>
   <v>       0.00000000       0.50000000       0.50000000 </v>
   <v>       0.50000000       0.50000000       0.50000000 </v>
   <v>       0.00000000       0.25000000       0.25000000 </v>
   <v>       0.50000000       0.25000000       0.25000000 </v>
   <v>       0.00000000       0.75000000       0.25000000 </v>
   <v>       0.50000000       0.75000000       0.25000000 </v>
   <v>       0.00000000       0.25000000       0.75000000 </v>
   <v>       0.50000000       0.25000000       0.75000000 </v>
   <v>       0.00000000       0.75000000       0.75000000 </v>
   <v>       0.50000000       0.75000000       0.75000000 </v>
   <v>       0.25000000       0.00000000       0.25000000 </v>
   <v>       0.75000000       0.00000000       0.25000000 </v>
   <v>       0.25000000       0.50000000       0.25000000 </v>
   <v>       0.75000000       0.50000000       0.25000000 </v>
   <v>       0.25000000       0.00000000       0.75000000 </v>
   <v>       0.75000000       0.00000000       0.75000000 </v>
   <v>       0.25000000       0.50000000       0.75000000 </v>
   <v>       0.75000000       0.50000000       0.75000000 </v>
   <v>       0.25000000       0.25000000       0.00000000 </v>
   <v>       0.75000000       0.25000000       0.00000000 </v>
   <v>       0.25000000       0.75000000       0.00000000 </v>
   <v>       0.75000000       0.75000000       0.00000000 </v>
   <v>       0.25000000       0.25000000       0.50000000 </v>
   <v>       0.75000000       0.25000000       0.50000000 </v>
   <v>       0.25000000       0.75000000       0.50000000 </v>
   <v>       0.75000000       0.75000000       0.50000000 </v>
   <v>       0.12574679       0.12500000       0.12500000 </v>
   <v>       0.62500000       0.12500000       0.12500000 </v>
   <v>       0.12500000       0.62500000       0.12500000 </v>
   <v>       0.62500000       0.62500000       0.12500000 </v>
   <v>       0.12500000       0.12500000       0.62500000 </v>
   <v>       0.62500000       0.12500000       0.62500000 </v>
   <v>       0.12500000       0.62500000       0.62500000 </v>
   <v>       0.62500000       0.62500000       0.62500000 </v>
   <v>       0.12500000       0.37500000       0.37500000 </v>
   <v>       0.62500000       0.37500000       0.37500000 </v>
   <v>       0.12500000       0.87500000       0.37500000 </v>
   <v>       0.62500000       0.87500000       0.37500000 </v>
   <v>       0.12500000       0.37500000       0.87500000 </v>
   <v>       0.62500000       0.37500000       0.87500000 </v>
   <v>       0.12500000       0.87500000       0.87500000 </v>
   <v>       0.62500000       0.87500000       0.87500000 </v>
   <v>       0.37500000       0.12500000       0.37500000 </v>
   <v>       0.87500000       0.12500000       0.37500000 </v>
   <v>       0.37500000       0.62500000       0.37500000 </v>
   <v>       0.87500000       0.62500000       0.37500000 </v>
   <v>       0.37500000       0.12500000       0.87500000 </v>
   <v>       0.87500000       0.12500000       0.87500000 </v>
   <v>       0.37500000       0.62500000       0.87500000 </v>
   <v>       0.87500000       0.62500000       0.87500000 </v>
   <v>       0.37500000       0.37500000       0.12500000 </v>
   <v>       0.87500000       0.37500000       0.12500000 </v>
   <v>       0.37500000       0.87500000       0.12500000 </v>
   <v>       0.87500000       0.87500000       0.12500000 </v>
   <v>       0.37500000       0.37500000       0.62500000 </v>
   <v>       0.87500000       0.37500000       0.62500000 </v>
   <v>       0.37500000       0.87500000       0.62500000 </v>
   <v>       0.87500000       0.87500000       0.62500000 </v>
  </varray>
 </structure>
 <calculation>
  <scstep>
   <time name="dav">   95.49   95.99</time>
   <time name="total">   95.54   96.07</time>
   <energy>
    <i name="alphaZ">   1457.33582743 </i>
    <i name="ewald"> -32372.65453593 </i>
    <i name="hartreedc"> -16917.63719854 </i>
    <i name="XCdc">   -735.17319270 </i>
    <i name="pawpsdc">  44941.76741987 </i>
    <i name="pawaedc"> -42629.27134123 </i>
    <i name="eentropy">     -0.03179359 </i>
    <i name="bandstr">    726.33722282 </i>
    <i name="atom">  48525.04422734 </i>
    <i name="e_fr_energy">   2995.71663547 </i>
    <i name="e_wo_entrp">   2995.74842906 </i>
    <i name="e_0_energy">   2995.73253227 </i>
   </energy>
  </scstep>
  <scstep>
   <time name="dav">  102.64  103.04</time>
   <time name="total">  102.64  103.04</time>
   <energy>
    <i name="e_fr_energy">      8.84317382 </i>
    <i name="e_wo_entrp">      8.84317382 </i>
    <i name="e_0_energy">      8.84317382 </i>
   </energy>
  </scstep>
  <scstep>
   <time name="dav">  109.44  109.90</time>
   <time name="total">  109.44  109.90</time>
   <energy>
    <i name="e_fr_energy">   -158.62747084 </i>
    <i name="e_wo_entrp">   -158.62747084 </i>
    <i name="e_0_energy">   -158.62747084 </i>
   </energy>
  </scstep>
  <scstep>
   <time name="dav">  107.12  107.57</time>
   <time name="total">  107.12  107.57</time>
   <energy>
    <i name="e_fr_energy">   -161.33575897 </i>
    <i name="e_wo_entrp">   -161.33575897 </i>
    <i name="e_0_energy">   -161.33575897 </i>
   </energy>
  </scstep>
  <scstep>
   <time name="dav">  104.82  105.23</time>
   <time name="total">  105.41  105.83</time>
   <energy>
    <i name="e_fr_energy">   -161.37289405 </i>
    <i name="e_wo_entrp">   -161.37289405 </i>
    <i name="e_0_energy">   -161.37289405 </i>
   </energy>
  </scstep>
  <scstep>
   <time name="dav">   99.03   99.50</time>
   <time name="total">   99.51  100.01</time>
   <energy>
    <i name="e_fr_energy">   -154.05539625 </i>
    <i name="e_wo_entrp">   -154.05539625 </i>
    <i name="e_0_energy">   -154.05539625 </i>
   </energy>
  </scstep>
  <scstep>
   <time name="dav">   97.88   98.25</time>
   <time name="total">   98.51   98.90</time>
   <energy>
    <i name="e_fr_energy">   -153.64392886 </i>
    <i name="e_wo_entrp">   -153.64392886 </i>
    <i name="e_0_energy">   -153.64392886 </i>
   </energy>
  </scstep>
  <scstep>
   <time name="dav">   98.35   98.75</time>
   <time name="total">   98.95   99.40</time>
   <energy>
    <i name="e_fr_energy">   -153.64860095 </i>
    <i name="e_wo_entrp">   -153.64860095 </i>
    <i name="e_0_energy">   -153.64860095 </i>
   </energy>
  </scstep>
  <scstep>
   <time name="dav">   98.96   99.34</time>
   <time name="total">   99.58   99.99</time>
   <energy>
    <i name="e_fr_energy">   -153.65636468 </i>
    <i name="e_wo_entrp">   -153.65636468 </i>
    <i name="e_0_energy">   -153.65636468 </i>
   </energy>
  </scstep>
  <scstep>
   <time name="dav">  100.52  100.93</time>
   <time name="total">  100.91  101.34</time>
   <energy>
    <i name="e_fr_energy">   -153.65406815 </i>
    <i name="e_wo_entrp">   -153.65406815 </i>
    <i name="e_0_energy">   -153.65406815 </i>
   </energy>
  </scstep>
  <scstep>
   <time name="dav">   97.29   97.63</time>
   <time name="total">   97.91   98.28</time>
   <energy>
    <i name="e_fr_energy">   -153.65504769 </i>
    <i name="e_wo_entrp">   -153.65504769 </i>
    <i name="e_0_energy">   -153.65504769 </i>
   </energy>
  </scstep>
  <scstep>
   <time name="dav">   94.54   94.91</time>
   <time name="total">   94.94   95.33</time>
   <energy>
    <i name="e_fr_energy">   -153.65515241 </i>
    <i name="e_wo_entrp">   -153.65515241 </i>
    <i name="e_0_energy">   -153.65515241 </i>
   </energy>
  </scstep>
  <scstep>
   <time name="dav">   80.61   80.90</time>
   <time name="total">   81.23   81.54</time>
   <energy>
    <i name="e_fr_energy">   -153.65526566 </i>
    <i name="e_wo_entrp">   -153.65526566 </i>
    <i name="e_0_energy">   -153.65526566 </i>
   </energy>
  </scstep>
  <scstep>
   <time name="dav">   77.25   77.49</time>
   <time name="total">   77.28   77.56</time>
   <energy>
    <i name="alphaZ">   1457.33582743 </i>
    <i name="ewald"> -32372.65453593 </i>
    <i name="hartreedc"> -16712.17646599 </i>
    <i name="XCdc">   -732.98792772 </i>
    <i name="pawpsdc">  53365.51821177 </i>
    <i name="pawaedc"> -51030.04713875 </i>
    <i name="eentropy">     -0.00000000 </i>
    <i name="bandstr">  -2653.68748035 </i>
    <i name="atom">  48525.04422734 </i>
    <i name="e_fr_energy">   -153.65528220 </i>
    <i name="e_wo_entrp">   -153.65528220 </i>
    <i name="e_0_energy">   -153.65528220 </i>
   </energy>
  </scstep>
  <structure>
   <crystal>
    <varray name="basis" >
     <v>      13.39071620       0.00000000       0.00000000 </v>
     <v>       0.00000000      13.39071620       0.00000000 </v>
     <v>       0.00000000       0.00000000      13.39071620 </v>
    </varray>
    <i name="volume">   2401.10646453 </i>
    <varray name="rec_basis" >
     <v>       0.07467860       0.00000000       0.00000000 </v>
     <v>       0.00000000       0.07467860       0.00000000 </v>
     <v>       0.00000000       0.00000000       0.07467860 </v>
    </varray>
   </crystal>
   <varray name="positions" >
    <v>       0.00000000       0.00000000       0.00000000 </v>
    <v>       0.50000000       0.00000000       0.00000000 </v>
    <v>       0.00000000       0.50000000       0.00000000 </v>
    <v>       0.50000000       0.50000000       0.00000000 </v>
    <v>       0.00000000       0.00000000       0.50000000 </v>
    <v>       0.50000000       0.00000000       0.50000000 </v>
    <v>       0.00000000       0.50000000       0.50000000 </v>
    <v>       0.50000000       0.50000000       0.50000000 </v>
    <v>       0.00000000       0.25000000       0.25000000 </v>
    <v>       0.50000000       0.25000000       0.25000000 </v>
    <v>       0.00000000       0.75000000       0.25000000 </v>
    <v>       0.50000000       0.75000000       0.25000000 </v>
    <v>       0.00000000       0.25000000       0.75000000 </v>
    <v>       0.50000000       0.25000000       0.75000000 </v>
    <v>       0.00000000       0.75000000       0.75000000 </v>
    <v>       0.50000000       0.75000000       0.75000000 </v>
    <v>       0.25000000       0.00000000       0.25000000 </v>
    <v>       0.75000000       0.00000000       0.25000000 </v>
    <v>       0.25000000       0.50000000       0.25000000 </v>
    <v>       0.75000000       0.50000000       0.25000000 </v>
    <v>       0.25000000       0.00000000       0.75000000 </v>
    <v>       0.75000000       0.00000000       0.75000000 </v>
    <v>       0.25000000       0.50000000       0.75000000 </v>
    <v>       0.75000000       0.50000000       0.75000000 </v>
    <v>       0.25000000       0.25000000       0.00000000 </v>
    <v>       0.75000000       0.25000000       0.00000000 </v>
    <v>       0.25000000       0.75000000       0.00000000 </v>
    <v>       0.75000000       0.75000000       0.00000000 </v>
    <v>       0.25000000       0.25000000       0.50000000 </v>
    <v>       0.75000000       0.25000000       0.50000000 </v>
    <v>       0.25000000       0.75000000       0.50000000 </v>
    <v>       0.75000000       0.75000000       0.50000000 </v>
    <v>       0.12574679       0.12500000       0.12500000 </v>
    <v>       0.62500000       0.12500000       0.12500000 </v>
    <v>       0.12500000       0.62500000       0.12500000 </v>
    <v>       0.62500000       0.62500000       0.12500000 </v>
    <v>       0.12500000       0.12500000       0.62500000 </v>
    <v>       0.62500000       0.12500000       0.62500000 </v>
    <v>       0.12500000       0.62500000       0.62500000 </v>
    <v>       0.62500000       0.62500000       0.62500000 </v>
    <v>       0.12500000       0.37500000       0.37500000 </v>
    <v>       0.62500000       0.37500000       0.37500000 </v>
    <v>       0.12500000       0.87500000       0.37500000 </v>
    <v>       0.62500000       0.87500000       0.37500000 </v>
    <v>       0.12500000       0.37500000       0.87500000 </v>
    <v>       0.62500000       0.37500000       0.87500000 </v>
    <v>       0.12500000       0.87500000       0.87500000 </v>
    <v>       0.62500000       0.87500000       0.87500000 </v>
    <v>       0.37500000       0.12500000       0.37500000 </v>
    <v>       0.87500000       0.12500000       0.37500000 </v>
    <v>       0.37500000       0.62500000       0.37500000 </v>
    <v>       0.87500000       0.62500000       0.37500000 </v>
    <v>       0.37500000       0.12500000       0.87500000 </v>
    <v>       0.87500000       0.12500000       0.87500000 </v>
    <v>       0.37500000       0.62500000       0.87500000 </v>
    <v>       0.87500000       0.62500000       0.87500000 </v>
    <v>       0.37500000       0.37500000       0.12500000 </v>
    <v>       0.87500000       0.37500000       0.12500000 </v>
    <v>       0.37500000       0.87500000       0.12500000 </v>
    <v>       0.87500000       0.87500000       0.12500000 </v>
    <v>       0.37500000       0.37500000       0.62500000 </v>
    <v>       0.87500000       0.37500000       0.62500000 </v>
    <v>       0.37500000       0.87500000       0.62500000 </v>
    <v>       0.87500000       0.87500000       0.62500000 </v>
   </varray>
  </structure>
  <varray name="forces" >
   <v>       0.00914453       0.00721480       0.00721480 </v>
   <v>      -0.00061333      -0.00001025      -0.00001025 </v>
   <v>       0.00035748       0.00028276      -0.00016562 </v>
   <v>      -0.00056924      -0.00040765       0.00061198 </v>
   <v>       0.00035748      -0.00016562       0.00028276 </v>
   <v>      -0.00056924       0.00061198      -0.00040765 </v>
   <v>       0.00031998      -0.00009036      -0.00009036 </v>
   <v>      -0.00020332       0.00004735       0.00004735 </v>
   <v>       0.00914453      -0.00721480      -0.00721480 </v>
   <v>      -0.00061333       0.00001025       0.00001025 </v>
   <v>       0.00035748      -0.00028276       0.00016562 </v>
   <v>      -0.00056924       0.00040765      -0.00061198 </v>
   <v>       0.00035748       0.00016562      -0.00028276 </v>
   <v>      -0.00056924      -0.00061198       0.00040765 </v>
   <v>       0.00031998       0.00009036       0.00009036 </v>
   <v>      -0.00020332      -0.00004735      -0.00004735 </v>
   <v>       0.00927876      -0.00744626       0.00744626 </v>
   <v>      -0.00061393       0.00001015      -0.00001015 </v>
   <v>       0.00036160      -0.00028095      -0.00016978 </v>
   <v>      -0.00056934       0.00040744       0.00060727 </v>
   <v>       0.00036160       0.00016978       0.00028095 </v>
   <v>      -0.00056934      -0.00060727      -0.00040744 </v>
   <v>       0.00032604       0.00009189      -0.00009189 </v>
   <v>      -0.00020532      -0.00004758       0.00004758 </v>
   <v>       0.00927876       0.00744626      -0.00744626 </v>
   <v>      -0.00061393      -0.00001015       0.00001015 </v>
   <v>       0.00036160       0.00028095       0.00016978 </v>
   <v>      -0.00056934      -0.00040744      -0.00060727 </v>
   <v>       0.00036160      -0.00016978      -0.00028095 </v>
   <v>      -0.00056934       0.00060727       0.00040744 </v>
   <v>       0.00032604      -0.00009189       0.00009189 </v>
   <v>      -0.00020532       0.00004758      -0.00004758 </v>
   <v>      -0.05088504      -0.00000000       0.00000000 </v>
   <v>       0.00040575      -0.00000000       0.00000000 </v>
   <v>      -0.00024892      -0.00000000       0.00000000 </v>
   <v>       0.00100998      -0.00000000       0.00000000 </v>
   <v>      -0.00024892      -0.00000000       0.00000000 </v>
   <v>       0.00100998      -0.00000000       0.00000000 </v>
   <v>      -0.00015708      -0.00000000       0.00000000 </v>
   <v>       0.00011678      -0.00000000       0.00000000 </v>
   <v>       0.00012515       0.00046081       0.00046081 </v>
   <v>       0.00033288      -0.00002789      -0.00002789 </v>
   <v>       0.00013037       0.00047324      -0.00047324 </v>
   <v>       0.00033404      -0.00002793       0.00002793 </v>
   <v>       0.00013037      -0.00047324       0.00047324 </v>
   <v>       0.00033404       0.00002793      -0.00002793 </v>
   <v>       0.00012515      -0.00046081      -0.00046081 </v>
   <v>       0.00033288       0.00002789       0.00002789 </v>
   <v>       0.00174864      -0.00046632       0.00203995 </v>
   <v>       0.00173402      -0.00047031      -0.00201645 </v>
   <v>       0.00000276       0.00002905       0.00011435 </v>
   <v>       0.00000552       0.00002996      -0.00011473 </v>
   <v>       0.00174864       0.00046632      -0.00203995 </v>
   <v>       0.00173402       0.00047031       0.00201645 </v>
   <v>       0.00000276      -0.00002905      -0.00011435 </v>
   <v>       0.00000552      -0.00002996       0.00011473 </v>
   <v>       0.00174864       0.00203995      -0.00046632 </v>
   <v>       0.00173402      -0.00201645      -0.00047031 </v>
   <v>       0.00174864      -0.00203995       0.00046632 </v>
   <v>       0.00173402       0.00201645       0.00047031 </v>
   <v>       0.00000276       0.00011435       0.00002905 </v>
   <v>       0.00000552      -0.00011473       0.00002996 </v>
   <v>       0.00000276      -0.00011435      -0.00002905 </v>
   <v>       0.00000552       0.00011473      -0.00002996 </v>
  </varray>
  <varray name="stress" >
   <v>     -13.51569162       0.00000000       0.00000000 </v>
   <v>       0.00000000     -13.51525425      -0.02468070 </v>
   <v>       0.00000000      -0.02468070     -13.51525425 </v>
  </varray>
  <energy>
   <i name="e_fr_energy">   -153.65528220 </i>
   <i name="e_wo_entrp">   -153.65528220 </i>
   <i name="e_0_energy">   -153.65528220 </i>
  </energy>
  <time name="totalsc"> 1561.89 1569.82</time>
  <eigenvalues>
   <array>
    <dimension dim="1">band</dimension>
    <dimension dim="2">kpoint</dimension>
    <dimension dim="3">spin</dimension>
    <field>eigene</field>
    <field>occ</field>
    <set>
     <set comment="spin 1">
      <set comment="kpoint 1">
       <r>   -9.1518    1.0000 </r>
       <r>   -8.9437    1.0000 </r>
       <r>   -8.9436    1.0000 </r>
       <r>   -8.9435    1.0000 </r>
       <r>   -8.9435    1.0000 </r>
       <r>   -8.9435    1.0000 </r>
       <r>   -8.9434    1.0000 </r>
       <r>   -8.8424    1.0000 </r>
       <r>   -8.8423    1.0000 </r>
       <r>   -8.8422    1.0000 </r>
       <r>   -8.8419    1.0000 </r>
       <r>   -8.8418    1.0000 </r>
       <r>   -8.8418    1.0000 </r>
       <r>   -8.8418    1.0000 </r>
       <r>   -8.8418    1.0000 </r>
       <r>   -8.8418    1.0000 </r>
       <r>   -8.8415    1.0000 </r>
       <r>   -8.8415    1.0000 </r>
       <r>   -8.8415    1.0000 </r>
       <r>   -8.8400    1.0000 </r>
       <r>   -8.8399    1.0000 </r>
       <r>   -8.8397    1.0000 </r>
       <r>   -8.8397    1.0000 </r>
       <r>   -8.7462    1.0000 </r>
       <r>   -8.7458    1.0000 </r>
       <r>   -8.7458    1.0000 </r>
       <r>   -8.7458    1.0000 </r>
       <r>   -8.7458    1.0000 </r>
       <r>   -8.7457    1.0000 </r>
       <r>   -8.7446    1.0000 </r>
       <r>   -8.7446    1.0000 </r>
       <r>   -8.7444    1.0000 </r>
       <r>   -6.4763    1.0000 </r>
       <r>   -6.4762    1.0000 </r>
       <r>   -6.4761    1.0000 </r>
       <r>   -6.4286    1.0000 </r>
       <r>   -6.4284    1.0000 </r>
       <r>   -6.4283    1.0000 </r>
       <r>   -6.4283    1.0000 </r>
       <r>   -6.4282    1.0000 </r>
       <r>   -6.4282    1.0000 </r>
       <r>   -6.4281    1.0000 </r>
       <r>   -6.4280    1.0000 </r>
       <r>   -6.4186    1.0000 </r>
       <r>   -6.4181    1.0000 </r>
       <r>   -6.4181    1.0000 </r>
       <r>   -6.4180    1.0000 </r>
       <r>   -6.4180    1.0000 </r>
       <r>   -6.4180    1.0000 </r>
       <r>   -6.4180    1.0000 </r>
       <r>   -6.4180    1.0000 </r>
       <r>   -6.4180    1.0000 </r>
       <r>   -6.4179    1.0000 </r>
       <r>   -6.4179    1.0000 </r>
       <r>   -6.4177    1.0000 </r>
       <r>   -6.4165    1.0000 </r>
       <r>   -6.4162    1.0000 </r>
       <r>   -6.4161    1.0000 </r>
       <r>   -6.4161    1.0000 </r>
       <r>   -6.4161    1.0000 </r>
       <r>   -6.4161    1.0000 </r>
       <r>   -6.4161    1.0000 </r>
       <r>   -6.4160    1.0000 </r>
       <r>   -6.4160    1.0000 </r>
       <r>   -6.4160    1.0000 </r>
       <r>   -6.4160    1.0000 </r>
       <r>   -6.4156    1.0000 </r>
       <r>   -6.4140    1.0000 </r>
       <r>   -6.4138    1.0000 </r>
       <r>   -6.4137    1.0000 </r>
       <r>   -6.4137    1.0000 </r>
       <r>   -6.4137    1.0000 </r>
       <r>   -6.4137    1.0000 </r>
       <r>   -6.4136    1.0000 </r>
       <r>   -6.4136    1.0000 </r>
       <r>   -6.4136    1.0000 </r>
       <r>   -6.4136    1.0000 </r>
       <r>   -6.4135    1.0000 </r>
       <r>   -6.4131    1.0000 </r>
       <r>   -6.3860    1.0000 </r>
       <r>   -6.3859    1.0000 </r>
       <r>   -6.3858    1.0000 </r>
       <r>   -6.3858    1.0000 </r>
       <r>   -6.3857    1.0000 </r>
       <r>   -6.3856    1.0000 </r>
       <r>   -6.3770    1.0000 </r>
       <r>   -6.3768    1.0000 </r>
       <r>   -6.3768    1.0000 </r>
       <r>   -6.3768    1.0000 </r>
       <r>   -6.3768    1.0000 </r>
       <r>   -6.3766    1.0000 </r>
       <r>   -6.3552    1.0000 </r>
       <r>   -6.3549    1.0000 </r>
       <r>   -6.3549    1.0000 </r>
       <r>   -6.3549    1.0000 </r>
       <r>   -6.3548    1.0000 </r>
       <r>   -6.3546    1.0000 </r>
       <r>   -6.3494    1.0000 </r>
       <r>   -6.3493    1.0000 </r>
       <r>   -6.3492    1.0000 </r>
       <r>   -6.3401    1.0000 </r>
       <r>   -6.3399    1.0000 </r>
       <r>   -6.3399    1.0000 </r>
       <r>   -6.3399    1.0000 </r>
       <r>   -6.3399    1.0000 </r>
       <r>   -6.3398    1.0000 </r>
       <r>   -6.3016    1.0000 </r>
       <r>   -6.3016    1.0000 </r>
       <r>   -6.3016    1.0000 </r>
       <r>   -6.3016    1.0000 </r>
       <r>   -6.3015    1.0000 </r>
       <r>   -6.3015    1.0000 </r>
       <r>   -6.2854    1.0000 </r>
       <r>   -6.2853    1.0000 </r>
       <r>   -6.2853    1.0000 </r>
       <r>   -6.2853    1.0000 </r>
       <r>   -6.2853    1.0000 </r>
       <r>   -6.2852    1.0000 </r>
       <r>   -6.2851    1.0000 </r>
       <r>   -6.2851    1.0000 </r>
       <r>   -6.2851    1.0000 </r>
       <r>   -6.2850    1.0000 </r>
       <r>   -6.2850    1.0000 </r>
       <r>   -6.2850    1.0000 </r>
       <r>   -6.2838    1.0000 </r>
       <r>   -6.2838    1.0000 </r>
       <r>   -6.2838    1.0000 </r>
       <r>   -6.2838    1.0000 </r>
       <r>   -6.2838    1.0000 </r>
       <r>   -6.2838    1.0000 </r>
       <r>   -6.2836    1.0000 </r>
       <r>   -6.2836    1.0000 </r>
       <r>   -6.2836    1.0000 </r>
       <r>   -6.2836    1.0000 </r>
       <r>   -6.2836    1.0000 </r>
       <r>   -6.2835    1.0000 </r>
       <r>   -6.2808    1.0000 </r>
       <r>   -6.2808    1.0000 </r>
       <r>   -6.2781    1.0000 </r>
       <r>   -6.2780    1.0000 </r>
       <r>   -6.2780    1.0000 </r>
       <r>   -6.2780    1.0000 </r>
       <r>   -6.2780    1.0000 </r>
       <r>   -6.2779    1.0000 </r>
       <r>   -6.2734    1.0000 </r>
       <r>   -6.2734    1.0000 </r>
       <r>   -6.2733    1.0000 </r>
       <r>   -6.2733    1.0000 </r>
       <r>   -6.2732    1.0000 </r>
       <r>   -6.2731    1.0000 </r>
       <r>   -6.2731    1.0000 </r>
       <r>   -6.2731    1.0000 </r>
       <r>   -6.2690    1.0000 </r>
       <r>   -6.2690    1.0000 </r>
       <r>   -6.2689    1.0000 </r>
       <r>   -6.2689    1.0000 </r>
       <r>   -6.2689    1.0000 </r>
       <r>   -6.2688    1.0000 </r>
       <r>   -6.2572    1.0000 </r>
       <r>   -6.2572    1.0000 </r>
       <r>   -6.2571    1.0000 </r>
       <r>   -6.2468    1.0000 </r>
       <r>   -6.2468    1.0000 </r>
       <r>   -6.2467    1.0000 </r>
       <r>   -6.2467    1.0000 </r>
       <r>   -6.2466    1.0000 </r>
       <r>   -6.2466    1.0000 </r>
       <r>   -6.0492    1.0000 </r>
       <r>   -6.0490    1.0000 </r>
       <r>   -6.0489    1.0000 </r>
       <r>   -6.0489    1.0000 </r>
       <r>   -6.0488    1.0000 </r>
       <r>   -6.0488    1.0000 </r>
       <r>   -6.0488    1.0000 </r>
       <r>   -6.0488    1.0000 </r>
       <r>   -6.0488    1.0000 </r>
       <r>   -6.0488    1.0000 </r>
       <r>   -6.0487    1.0000 </r>
       <r>   -6.0484    1.0000 </r>
       <r>   -6.0016    1.0000 </r>
       <r>   -6.0016    1.0000 </r>
       <r>   -6.0016    1.0000 </r>
       <r>   -6.0016    1.0000 </r>
       <r>   -5.8932    1.0000 </r>
       <r>   -5.8932    1.0000 </r>
       <r>   -5.8932    1.0000 </r>
       <r>   -5.8377    1.0000 </r>
       <r>   -5.8377    1.0000 </r>
       <r>   -5.8377    1.0000 </r>
       <r>   -5.8377    1.0000 </r>
       <r>   -5.8377    1.0000 </r>
       <r>   -5.8376    1.0000 </r>
       <r>   -2.3923    1.0000 </r>
       <r>   -2.3918    1.0000 </r>
       <r>   -2.3916    1.0000 </r>
       <r>   -2.3911    1.0000 </r>
       <r>   -2.3484    1.0000 </r>
       <r>   -2.3478    1.0000 </r>
       <r>   -2.3471    1.0000 </r>
       <r>   -2.2344    1.0000 </r>
       <r>   -2.2331    1.0000 </r>
       <r>   -2.2330    1.0000 </r>
       <r>   -2.2330    1.0000 </r>
       <r>   -2.2329    1.0000 </r>
       <r>   -2.2316    1.0000 </r>
       <r>   -1.8391    1.0000 </r>
       <r>   -1.8376    1.0000 </r>
       <r>   -1.8371    1.0000 </r>
       <r>   -1.8371    1.0000 </r>
       <r>   -1.8370    1.0000 </r>
       <r>   -1.8370    1.0000 </r>
       <r>   -1.8369    1.0000 </r>
       <r>   -1.8369    1.0000 </r>
       <r>   -1.8368    1.0000 </r>
       <r>   -1.8368    1.0000 </r>
       <r>   -1.8363    1.0000 </r>
       <r>   -1.8348    1.0000 </r>
       <r>   -0.9776    1.0000 </r>
       <r>   -0.9770    1.0000 </r>
       <r>   -0.9767    1.0000 </r>
       <r>   -0.9767    1.0000 </r>
       <r>   -0.9765    1.0000 </r>
       <r>   -0.9758    1.0000 </r>
       <r>   -0.4479    1.0000 </r>
       <r>   -0.4478    1.0000 </r>
       <r>   -0.4477    1.0000 </r>
       <r>   -0.4477    1.0000 </r>
       <r>   -0.4477    1.0000 </r>
       <r>   -0.4476    1.0000 </r>
       <r>   -0.3036    1.0000 </r>
       <r>   -0.3031    1.0000 </r>
       <r>   -0.3027    1.0000 </r>
       <r>   -0.3027    1.0000 </r>
       <r>   -0.3025    1.0000 </r>
       <r>   -0.3020    1.0000 </r>
       <r>   -0.2872    1.0000 </r>
       <r>   -0.2871    1.0000 </r>
       <r>   -0.2869    1.0000 </r>
       <r>   -0.2862    1.0000 </r>
       <r>   -0.2861    1.0000 </r>
       <r>   -0.2861    1.0000 </r>
       <r>   -0.2861    1.0000 </r>
       <r>   -0.2861    1.0000 </r>
       <r>   -0.2860    1.0000 </r>
       <r>   -0.2852    1.0000 </r>
       <r>   -0.2852    1.0000 </r>
       <r>   -0.2850    1.0000 </r>
       <r>   -0.0425    1.0000 </r>
       <r>   -0.0422    1.0000 </r>
       <r>   -0.0422    1.0000 </r>
       <r>   -0.0422    1.0000 </r>
       <r>   -0.0422    1.0000 </r>
       <r>   -0.0419    1.0000 </r>
       <r>    0.6163    1.0000 </r>
       <r>    0.6170    1.0000 </r>
       <r>    0.6176    1.0000 </r>
       <r>    0.6176    1.0000 </r>
       <r>    0.6177    1.0000 </r>
       <r>    0.6177    1.0000 </r>
       <r>    0.6177    1.0000 </r>
       <r>    0.6177    1.0000 </r>
       <r>    0.6177    1.0000 </r>
       <r>    0.6178    1.0000 </r>
       <r>    0.6184    1.0000 </r>
       <r>    0.6191    1.0000 </r>
       <r>    0.8460    1.0000 </r>
       <r>    0.8461    1.0000 </r>
       <r>    0.8468    1.0000 </r>
       <r>    0.8470    1.0000 </r>
       <r>    0.8471    1.0000 </r>
       <r>    0.8471    1.0000 </r>
       <r>    0.8471    1.0000 </r>
       <r>    0.8471    1.0000 </r>
       <r>    0.8471    1.0000 </r>
       <r>    0.8473    1.0000 </r>
       <r>    0.8480    1.0000 </r>
       <r>    0.8481    1.0000 </r>
       <r>    0.8711    1.0000 </r>
       <r>    0.8714    1.0000 </r>
       <r>    0.8718    1.0000 </r>
       <r>    0.8718    1.0000 </r>
       <r>    0.8718    1.0000 </r>
       <r>    0.8718    1.0000 </r>
       <r>    0.8723    1.0000 </r>
       <r>    0.8726    1.0000 </r>
       <r>    1.5134    1.0000 </r>
       <r>    1.5136    1.0000 </r>
       <r>    1.5139    1.0000 </r>
       <r>    1.9917    0.0000 </r>
       <r>    3.2259    0.0000 </r>
       <r>    3.2265    0.0000 </r>
       <r>    3.2268    0.0000 </r>
       <r>    3.2273    0.0000 </r>
       <r>    4.1672    0.0000 </r>
       <r>    4.1684    0.0000 </r>
       <r>    4.1695    0.0000 </r>
       <r>    4.2398    0.0000 </r>
       <r>    4.2412    0.0000 </r>
       <r>    4.2417    0.0000 </r>
       <r>    4.2417    0.0000 </r>
       <r>    4.2421    0.0000 </r>
       <r>    4.2435    0.0000 </r>
       <r>    4.3206    0.0000 </r>
       <r>    4.3207    0.0000 </r>
       <r>    4.3207    0.0000 </r>
       <r>    4.4302    0.0000 </r>
       <r>    4.4318    0.0000 </r>
       <r>    4.4330    0.0000 </r>
       <r>    4.4331    0.0000 </r>
       <r>    4.4331    0.0000 </r>
       <r>    4.4331    0.0000 </r>
       <r>    4.4332    0.0000 </r>
       <r>    4.4332    0.0000 </r>
       <r>    4.4332    0.0000 </r>
       <r>    4.4332    0.0000 </r>
       <r>    4.4345    0.0000 </r>
       <r>    4.4362    0.0000 </r>
       <r>    4.9330    0.0000 </r>
       <r>    4.9335    0.0000 </r>
       <r>    4.9335    0.0000 </r>
       <r>    4.9335    0.0000 </r>
       <r>    4.9336    0.0000 </r>
       <r>    4.9340    0.0000 </r>
       <r>    5.4141    0.0000 </r>
       <r>    5.4165    0.0000 </r>
       <r>    5.4166    0.0000 </r>
       <r>    5.4166    0.0000 </r>
       <r>    5.4167    0.0000 </r>
       <r>    5.4190    0.0000 </r>
       <r>    6.1650    0.0000 </r>
       <r>    6.1652    0.0000 </r>
       <r>    6.1654    0.0000 </r>
       <r>    6.2137    0.0000 </r>
       <r>    6.2146    0.0000 </r>
       <r>    6.2149    0.0000 </r>
       <r>    6.2149    0.0000 </r>
       <r>    6.2153    0.0000 </r>
       <r>    6.2161    0.0000 </r>
       <r>    6.6912    0.0000 </r>
       <r>    6.6923    0.0000 </r>
       <r>    6.6931    0.0000 </r>
       <r>    6.6936    0.0000 </r>
       <r>    6.6937    0.0000 </r>
       <r>    6.6938    0.0000 </r>
       <r>    6.6939    0.0000 </r>
       <r>    6.6940    0.0000 </r>
       <r>    6.6941    0.0000 </r>
       <r>    6.6946    0.0000 </r>
       <r>    6.6953    0.0000 </r>
       <r>    6.6963    0.0000 </r>
       <r>    6.7232    0.0000 </r>
       <r>    6.7233    0.0000 </r>
       <r>    6.7240    0.0000 </r>
       <r>    6.7241    0.0000 </r>
       <r>    6.7242    0.0000 </r>
       <r>    6.7244    0.0000 </r>
       <r>    6.7252    0.0000 </r>
       <r>    6.7253    0.0000 </r>
       <r>    6.9470    0.0000 </r>
       <r>    6.9472    0.0000 </r>
       <r>    6.9473    0.0000 </r>
       <r>    6.9473    0.0000 </r>
       <r>    6.9473    0.0000 </r>
       <r>    6.9476    0.0000 </r>
       <r>    7.0105    0.0000 </r>
       <r>    7.0113    0.0000 </r>
       <r>    7.0122    0.0000 </r>
       <r>    7.0125    0.0000 </r>
       <r>    7.0126    0.0000 </r>
       <r>    7.0126    0.0000 </r>
       <r>    7.0126    0.0000 </r>
       <r>    7.0127    0.0000 </r>
       <r>    7.0128    0.0000 </r>
       <r>    7.0130    0.0000 </r>
       <r>    7.0140    0.0000 </r>
       <r>    7.0147    0.0000 </r>
       <r>    7.2873    0.0000 </r>
       <r>    7.2877    0.0000 </r>
       <r>    7.2883    0.0000 </r>
       <r>    7.2884    0.0000 </r>
       <r>    7.2886    0.0000 </r>
       <r>    7.2888    0.0000 </r>
       <r>    7.2892    0.0000 </r>
       <r>    7.2898    0.0000 </r>
      </set>
      <set comment="kpoint 2">
       <r>   -9.1237    1.0000 </r>
       <r>   -9.0471    1.0000 </r>
       <r>   -8.9296    1.0000 </r>
       <r>   -8.9296    1.0000 </r>
       <r>   -8.9296    1.0000 </r>
       <r>   -8.9296    1.0000 </r>
       <r>   -8.8921    1.0000 </r>
       <r>   -8.8921    1.0000 </r>
       <r>   -8.8920    1.0000 </r>
       <r>   -8.8920    1.0000 </r>
       <r>   -8.8423    1.0000 </r>
       <r>   -8.8417    1.0000 </r>
       <r>   -8.8417    1.0000 </r>
       <r>   -8.8414    1.0000 </r>
       <r>   -8.8413    1.0000 </r>
       <r>   -8.8405    1.0000 </r>
       <r>   -8.8404    1.0000 </r>
       <r>   -8.8401    1.0000 </r>
       <r>   -8.8401    1.0000 </r>
       <r>   -8.7931    1.0000 </r>
       <r>   -8.7931    1.0000 </r>
       <r>   -8.7931    1.0000 </r>
       <r>   -8.7931    1.0000 </r>
       <r>   -8.7703    1.0000 </r>
       <r>   -8.7583    1.0000 </r>
       <r>   -8.7583    1.0000 </r>
       <r>   -8.7583    1.0000 </r>
       <r>   -8.7583    1.0000 </r>
       <r>   -8.7459    1.0000 </r>
       <r>   -8.7455    1.0000 </r>
       <r>   -8.7449    1.0000 </r>
       <r>   -8.7445    1.0000 </r>
       <r>   -6.4684    1.0000 </r>
       <r>   -6.4682    1.0000 </r>
       <r>   -6.4568    1.0000 </r>
       <r>   -6.4474    1.0000 </r>
       <r>   -6.4472    1.0000 </r>
       <r>   -6.4273    1.0000 </r>
       <r>   -6.4272    1.0000 </r>
       <r>   -6.4272    1.0000 </r>
       <r>   -6.4271    1.0000 </r>
       <r>   -6.4257    1.0000 </r>
       <r>   -6.4255    1.0000 </r>
       <r>   -6.4253    1.0000 </r>
       <r>   -6.4252    1.0000 </r>
       <r>   -6.4251    1.0000 </r>
       <r>   -6.4250    1.0000 </r>
       <r>   -6.4249    1.0000 </r>
       <r>   -6.4249    1.0000 </r>
       <r>   -6.4249    1.0000 </r>
       <r>   -6.4249    1.0000 </r>
       <r>   -6.4248    1.0000 </r>
       <r>   -6.4247    1.0000 </r>
       <r>   -6.4198    1.0000 </r>
       <r>   -6.4195    1.0000 </r>
       <r>   -6.4193    1.0000 </r>
       <r>   -6.4192    1.0000 </r>
       <r>   -6.4188    1.0000 </r>
       <r>   -6.4186    1.0000 </r>
       <r>   -6.4186    1.0000 </r>
       <r>   -6.4184    1.0000 </r>
       <r>   -6.4184    1.0000 </r>
       <r>   -6.4182    1.0000 </r>
       <r>   -6.4182    1.0000 </r>
       <r>   -6.4180    1.0000 </r>
       <r>   -6.4180    1.0000 </r>
       <r>   -6.4179    1.0000 </r>
       <r>   -6.4177    1.0000 </r>
       <r>   -6.4176    1.0000 </r>
       <r>   -6.4046    1.0000 </r>
       <r>   -6.4044    1.0000 </r>
       <r>   -6.4044    1.0000 </r>
       <r>   -6.4042    1.0000 </r>
       <r>   -6.3998    1.0000 </r>
       <r>   -6.3970    1.0000 </r>
       <r>   -6.3969    1.0000 </r>
       <r>   -6.3969    1.0000 </r>
       <r>   -6.3968    1.0000 </r>
       <r>   -6.3925    1.0000 </r>
       <r>   -6.3923    1.0000 </r>
       <r>   -6.3923    1.0000 </r>
       <r>   -6.3921    1.0000 </r>
       <r>   -6.3873    1.0000 </r>
       <r>   -6.3871    1.0000 </r>
       <r>   -6.3815    1.0000 </r>
       <r>   -6.3814    1.0000 </r>
       <r>   -6.3814    1.0000 </r>
       <r>   -6.3813    1.0000 </r>
       <r>   -6.3785    1.0000 </r>
       <r>   -6.3785    1.0000 </r>
       <r>   -6.3742    1.0000 </r>
       <r>   -6.3739    1.0000 </r>
       <r>   -6.3661    1.0000 </r>
       <r>   -6.3659    1.0000 </r>
       <r>   -6.3637    1.0000 </r>
       <r>   -6.3635    1.0000 </r>
       <r>   -6.3630    1.0000 </r>
       <r>   -6.3630    1.0000 </r>
       <r>   -6.3462    1.0000 </r>
       <r>   -6.3383    1.0000 </r>
       <r>   -6.3336    1.0000 </r>
       <r>   -6.3335    1.0000 </r>
       <r>   -6.3220    1.0000 </r>
       <r>   -6.3220    1.0000 </r>
       <r>   -6.3220    1.0000 </r>
       <r>   -6.3219    1.0000 </r>
       <r>   -6.3137    1.0000 </r>
       <r>   -6.3137    1.0000 </r>
       <r>   -6.2996    1.0000 </r>
       <r>   -6.2996    1.0000 </r>
       <r>   -6.2995    1.0000 </r>
       <r>   -6.2995    1.0000 </r>
       <r>   -6.2986    1.0000 </r>
       <r>   -6.2985    1.0000 </r>
       <r>   -6.2985    1.0000 </r>
       <r>   -6.2985    1.0000 </r>
       <r>   -6.2933    1.0000 </r>
       <r>   -6.2933    1.0000 </r>
       <r>   -6.2932    1.0000 </r>
       <r>   -6.2932    1.0000 </r>
       <r>   -6.2856    1.0000 </r>
       <r>   -6.2827    1.0000 </r>
       <r>   -6.2821    1.0000 </r>
       <r>   -6.2821    1.0000 </r>
       <r>   -6.2819    1.0000 </r>
       <r>   -6.2819    1.0000 </r>
       <r>   -6.2807    1.0000 </r>
       <r>   -6.2807    1.0000 </r>
       <r>   -6.2805    1.0000 </r>
       <r>   -6.2805    1.0000 </r>
       <r>   -6.2789    1.0000 </r>
       <r>   -6.2784    1.0000 </r>
       <r>   -6.2784    1.0000 </r>
       <r>   -6.2784    1.0000 </r>
       <r>   -6.2784    1.0000 </r>
       <r>   -6.2775    1.0000 </r>
       <r>   -6.2775    1.0000 </r>
       <r>   -6.2774    1.0000 </r>
       <r>   -6.2774    1.0000 </r>
       <r>   -6.2761    1.0000 </r>
       <r>   -6.2761    1.0000 </r>
       <r>   -6.2759    1.0000 </r>
       <r>   -6.2759    1.0000 </r>
       <r>   -6.2757    1.0000 </r>
       <r>   -6.2757    1.0000 </r>
       <r>   -6.2756    1.0000 </r>
       <r>   -6.2756    1.0000 </r>
       <r>   -6.2755    1.0000 </r>
       <r>   -6.2754    1.0000 </r>
       <r>   -6.2752    1.0000 </r>
       <r>   -6.2752    1.0000 </r>
       <r>   -6.2748    1.0000 </r>
       <r>   -6.2702    1.0000 </r>
       <r>   -6.2702    1.0000 </r>
       <r>   -6.2702    1.0000 </r>
       <r>   -6.2701    1.0000 </r>
       <r>   -6.2696    1.0000 </r>
       <r>   -6.2694    1.0000 </r>
       <r>   -6.2630    1.0000 </r>
       <r>   -6.2604    1.0000 </r>
       <r>   -6.2602    1.0000 </r>
       <r>   -6.2586    1.0000 </r>
       <r>   -6.2250    1.0000 </r>
       <r>   -6.2249    1.0000 </r>
       <r>   -6.2249    1.0000 </r>
       <r>   -6.2247    1.0000 </r>
       <r>   -6.1536    1.0000 </r>
       <r>   -6.1535    1.0000 </r>
       <r>   -6.1535    1.0000 </r>
       <r>   -6.1534    1.0000 </r>
       <r>   -6.1090    1.0000 </r>
       <r>   -6.0374    1.0000 </r>
       <r>   -6.0374    1.0000 </r>
       <r>   -6.0374    1.0000 </r>
       <r>   -6.0373    1.0000 </r>
       <r>   -6.0138    1.0000 </r>
       <r>   -6.0138    1.0000 </r>
       <r>   -6.0137    1.0000 </r>
       <r>   -6.0137    1.0000 </r>
       <r>   -5.9599    1.0000 </r>
       <r>   -5.9427    1.0000 </r>
       <r>   -5.9426    1.0000 </r>
       <r>   -5.9426    1.0000 </r>
       <r>   -5.9426    1.0000 </r>
       <r>   -5.8789    1.0000 </r>
       <r>   -5.8789    1.0000 </r>
       <r>   -5.8654    1.0000 </r>
       <r>   -5.8654    1.0000 </r>
       <r>   -5.8654    1.0000 </r>
       <r>   -5.8653    1.0000 </r>
       <r>   -5.8511    1.0000 </r>
       <r>   -5.8511    1.0000 </r>
       <r>   -2.3224    1.0000 </r>
       <r>   -2.3211    1.0000 </r>
       <r>   -2.2836    1.0000 </r>
       <r>   -2.2831    1.0000 </r>
       <r>   -2.2829    1.0000 </r>
       <r>   -2.2824    1.0000 </r>
       <r>   -2.2654    1.0000 </r>
       <r>   -2.2639    1.0000 </r>
       <r>   -2.1990    1.0000 </r>
       <r>   -2.1982    1.0000 </r>
       <r>   -2.1982    1.0000 </r>
       <r>   -2.1975    1.0000 </r>
       <r>   -2.1642    1.0000 </r>
       <r>   -2.0755    1.0000 </r>
       <r>   -2.0748    1.0000 </r>
       <r>   -2.0748    1.0000 </r>
       <r>   -2.0742    1.0000 </r>
       <r>   -2.0173    1.0000 </r>
       <r>   -2.0166    1.0000 </r>
       <r>   -2.0165    1.0000 </r>
       <r>   -2.0158    1.0000 </r>
       <r>   -1.6721    1.0000 </r>
       <r>   -1.5008    1.0000 </r>
       <r>   -1.5001    1.0000 </r>
       <r>   -1.5001    1.0000 </r>
       <r>   -1.4994    1.0000 </r>
       <r>   -1.1495    1.0000 </r>
       <r>   -1.1487    1.0000 </r>
       <r>   -1.1487    1.0000 </r>
       <r>   -1.1479    1.0000 </r>
       <r>   -0.5791    1.0000 </r>
       <r>   -0.5791    1.0000 </r>
       <r>   -0.5790    1.0000 </r>
       <r>   -0.5790    1.0000 </r>
       <r>   -0.5322    1.0000 </r>
       <r>   -0.5321    1.0000 </r>
       <r>   -0.5321    1.0000 </r>
       <r>   -0.5320    1.0000 </r>
       <r>   -0.3501    1.0000 </r>
       <r>   -0.3500    1.0000 </r>
       <r>   -0.2423    1.0000 </r>
       <r>   -0.2423    1.0000 </r>
       <r>   -0.1549    1.0000 </r>
       <r>   -0.1484    1.0000 </r>
       <r>   -0.1483    1.0000 </r>
       <r>   -0.1125    1.0000 </r>
       <r>   -0.1125    1.0000 </r>
       <r>    0.0083    1.0000 </r>
       <r>    0.0086    1.0000 </r>
       <r>    0.0091    1.0000 </r>
       <r>    0.0094    1.0000 </r>
       <r>    0.0310    1.0000 </r>
       <r>    0.0312    1.0000 </r>
       <r>    0.0312    1.0000 </r>
       <r>    0.0313    1.0000 </r>
       <r>    0.0382    1.0000 </r>
       <r>    0.0385    1.0000 </r>
       <r>    0.0834    1.0000 </r>
       <r>    0.0837    1.0000 </r>
       <r>    0.0837    1.0000 </r>
       <r>    0.0841    1.0000 </r>
       <r>    0.2692    1.0000 </r>
       <r>    0.2695    1.0000 </r>
       <r>    0.4510    1.0000 </r>
       <r>    0.4515    1.0000 </r>
       <r>    0.4515    1.0000 </r>
       <r>    0.4520    1.0000 </r>
       <r>    0.5003    1.0000 </r>
       <r>    0.5006    1.0000 </r>
       <r>    0.5006    1.0000 </r>
       <r>    0.5008    1.0000 </r>
       <r>    0.5648    1.0000 </r>
       <r>    0.5653    1.0000 </r>
       <r>    0.5653    1.0000 </r>
       <r>    0.5658    1.0000 </r>
       <r>    0.7392    1.0000 </r>
       <r>    0.7392    1.0000 </r>
       <r>    0.7393    1.0000 </r>
       <r>    0.7393    1.0000 </r>
       <r>    0.7464    1.0000 </r>
       <r>    0.8526    1.0000 </r>
       <r>    0.8531    1.0000 </r>
       <r>    0.8532    1.0000 </r>
       <r>    0.8537    1.0000 </r>
       <r>    0.8650    1.0000 </r>
       <r>    0.8656    1.0000 </r>
       <r>    0.8656    1.0000 </r>
       <r>    0.8661    1.0000 </r>
       <r>    0.9052    1.0000 </r>
       <r>    0.9054    1.0000 </r>
       <r>    0.9054    1.0000 </r>
       <r>    0.9055    1.0000 </r>
       <r>    1.0202    1.0000 </r>
       <r>    1.0206    1.0000 </r>
       <r>    1.3688    1.0000 </r>
       <r>    1.3693    1.0000 </r>
       <r>    2.7811    0.0000 </r>
       <r>    3.5520    0.0000 </r>
       <r>    3.5525    0.0000 </r>
       <r>    3.5527    0.0000 </r>
       <r>    3.5532    0.0000 </r>
       <r>    3.6828    0.0000 </r>
       <r>    4.1406    0.0000 </r>
       <r>    4.1410    0.0000 </r>
       <r>    4.1411    0.0000 </r>
       <r>    4.1415    0.0000 </r>
       <r>    4.1736    0.0000 </r>
       <r>    4.2629    0.0000 </r>
       <r>    4.2939    0.0000 </r>
       <r>    4.2957    0.0000 </r>
       <r>    4.2957    0.0000 </r>
       <r>    4.2973    0.0000 </r>
       <r>    4.3484    0.0000 </r>
       <r>    4.3498    0.0000 </r>
       <r>    4.3498    0.0000 </r>
       <r>    4.3512    0.0000 </r>
       <r>    4.4235    0.0000 </r>
       <r>    4.4256    0.0000 </r>
       <r>    4.4557    0.0000 </r>
       <r>    4.6101    0.0000 </r>
       <r>    4.6101    0.0000 </r>
       <r>    4.6973    0.0000 </r>
       <r>    4.7165    0.0000 </r>
       <r>    4.7177    0.0000 </r>
       <r>    4.7177    0.0000 </r>
       <r>    4.7189    0.0000 </r>
       <r>    5.0208    0.0000 </r>
       <r>    5.0229    0.0000 </r>
       <r>    5.1560    0.0000 </r>
       <r>    5.1571    0.0000 </r>
       <r>    5.1571    0.0000 </r>
       <r>    5.1583    0.0000 </r>
       <r>    5.2170    0.0000 </r>
       <r>    5.2173    0.0000 </r>
       <r>    5.2174    0.0000 </r>
       <r>    5.2177    0.0000 </r>
       <r>    5.3456    0.0000 </r>
       <r>    5.3832    0.0000 </r>
       <r>    5.3833    0.0000 </r>
       <r>    5.8720    0.0000 </r>
       <r>    6.0030    0.0000 </r>
       <r>    6.0032    0.0000 </r>
       <r>    6.0032    0.0000 </r>
       <r>    6.0034    0.0000 </r>
       <r>    6.3341    0.0000 </r>
       <r>    6.3344    0.0000 </r>
       <r>    6.3344    0.0000 </r>
       <r>    6.3348    0.0000 </r>
       <r>    6.3916    0.0000 </r>
       <r>    6.3920    0.0000 </r>
       <r>    6.5048    0.0000 </r>
       <r>    6.5050    0.0000 </r>
       <r>    6.5057    0.0000 </r>
       <r>    6.5059    0.0000 </r>
       <r>    6.5482    0.0000 </r>
       <r>    6.5486    0.0000 </r>
       <r>    6.5486    0.0000 </r>
       <r>    6.5490    0.0000 </r>
       <r>    6.5981    0.0000 </r>
       <r>    6.5985    0.0000 </r>
       <r>    6.5993    0.0000 </r>
       <r>    6.5997    0.0000 </r>
       <r>    6.8356    0.0000 </r>
       <r>    6.8360    0.0000 </r>
       <r>    6.8364    0.0000 </r>
       <r>    6.8368    0.0000 </r>
       <r>    6.8576    0.0000 </r>
       <r>    6.8579    0.0000 </r>
       <r>    6.8579    0.0000 </r>
       <r>    6.8580    0.0000 </r>
       <r>    6.8594    0.0000 </r>
       <r>    6.8594    0.0000 </r>
       <r>    6.8595    0.0000 </r>
       <r>    6.8598    0.0000 </r>
       <r>    6.8918    0.0000 </r>
       <r>    6.8922    0.0000 </r>
       <r>    6.8922    0.0000 </r>
       <r>    6.8925    0.0000 </r>
       <r>    6.9872    0.0000 </r>
       <r>    6.9876    0.0000 </r>
       <r>    7.1088    0.0000 </r>
       <r>    7.1091    0.0000 </r>
       <r>    7.1097    0.0000 </r>
       <r>    7.1100    0.0000 </r>
       <r>    7.2791    0.0000 </r>
       <r>    7.2792    0.0000 </r>
       <r>    7.2792    0.0000 </r>
       <r>    7.2793    0.0000 </r>
       <r>    7.5047    0.0000 </r>
       <r>    7.5050    0.0000 </r>
       <r>    7.5052    0.0000 </r>
       <r>    7.5059    0.0000 </r>
      </set>
      <set comment="kpoint 3">
       <r>   -9.1237    1.0000 </r>
       <r>   -9.0471    1.0000 </r>
       <r>   -8.9297    1.0000 </r>
       <r>   -8.9296    1.0000 </r>
       <r>   -8.9296    1.0000 </r>
       <r>   -8.9294    1.0000 </r>
       <r>   -8.8922    1.0000 </r>
       <r>   -8.8921    1.0000 </r>
       <r>   -8.8920    1.0000 </r>
       <r>   -8.8919    1.0000 </r>
       <r>   -8.8423    1.0000 </r>
       <r>   -8.8415    1.0000 </r>
       <r>   -8.8414    1.0000 </r>
       <r>   -8.8414    1.0000 </r>
       <r>   -8.8413    1.0000 </r>
       <r>   -8.8405    1.0000 </r>
       <r>   -8.8404    1.0000 </r>
       <r>   -8.8404    1.0000 </r>
       <r>   -8.8403    1.0000 </r>
       <r>   -8.7933    1.0000 </r>
       <r>   -8.7931    1.0000 </r>
       <r>   -8.7931    1.0000 </r>
       <r>   -8.7929    1.0000 </r>
       <r>   -8.7703    1.0000 </r>
       <r>   -8.7585    1.0000 </r>
       <r>   -8.7583    1.0000 </r>
       <r>   -8.7583    1.0000 </r>
       <r>   -8.7581    1.0000 </r>
       <r>   -8.7455    1.0000 </r>
       <r>   -8.7455    1.0000 </r>
       <r>   -8.7449    1.0000 </r>
       <r>   -8.7449    1.0000 </r>
       <r>   -6.4683    1.0000 </r>
       <r>   -6.4683    1.0000 </r>
       <r>   -6.4568    1.0000 </r>
       <r>   -6.4473    1.0000 </r>
       <r>   -6.4473    1.0000 </r>
       <r>   -6.4274    1.0000 </r>
       <r>   -6.4272    1.0000 </r>
       <r>   -6.4272    1.0000 </r>
       <r>   -6.4271    1.0000 </r>
       <r>   -6.4256    1.0000 </r>
       <r>   -6.4255    1.0000 </r>
       <r>   -6.4254    1.0000 </r>
       <r>   -6.4253    1.0000 </r>
       <r>   -6.4250    1.0000 </r>
       <r>   -6.4249    1.0000 </r>
       <r>   -6.4249    1.0000 </r>
       <r>   -6.4249    1.0000 </r>
       <r>   -6.4249    1.0000 </r>
       <r>   -6.4249    1.0000 </r>
       <r>   -6.4248    1.0000 </r>
       <r>   -6.4246    1.0000 </r>
       <r>   -6.4195    1.0000 </r>
       <r>   -6.4195    1.0000 </r>
       <r>   -6.4194    1.0000 </r>
       <r>   -6.4194    1.0000 </r>
       <r>   -6.4187    1.0000 </r>
       <r>   -6.4186    1.0000 </r>
       <r>   -6.4185    1.0000 </r>
       <r>   -6.4185    1.0000 </r>
       <r>   -6.4184    1.0000 </r>
       <r>   -6.4183    1.0000 </r>
       <r>   -6.4182    1.0000 </r>
       <r>   -6.4182    1.0000 </r>
       <r>   -6.4179    1.0000 </r>
       <r>   -6.4179    1.0000 </r>
       <r>   -6.4178    1.0000 </r>
       <r>   -6.4175    1.0000 </r>
       <r>   -6.4044    1.0000 </r>
       <r>   -6.4044    1.0000 </r>
       <r>   -6.4044    1.0000 </r>
       <r>   -6.4043    1.0000 </r>
       <r>   -6.3998    1.0000 </r>
       <r>   -6.3971    1.0000 </r>
       <r>   -6.3969    1.0000 </r>
       <r>   -6.3969    1.0000 </r>
       <r>   -6.3967    1.0000 </r>
       <r>   -6.3924    1.0000 </r>
       <r>   -6.3924    1.0000 </r>
       <r>   -6.3923    1.0000 </r>
       <r>   -6.3923    1.0000 </r>
       <r>   -6.3872    1.0000 </r>
       <r>   -6.3872    1.0000 </r>
       <r>   -6.3815    1.0000 </r>
       <r>   -6.3814    1.0000 </r>
       <r>   -6.3814    1.0000 </r>
       <r>   -6.3812    1.0000 </r>
       <r>   -6.3785    1.0000 </r>
       <r>   -6.3785    1.0000 </r>
       <r>   -6.3741    1.0000 </r>
       <r>   -6.3741    1.0000 </r>
       <r>   -6.3660    1.0000 </r>
       <r>   -6.3660    1.0000 </r>
       <r>   -6.3637    1.0000 </r>
       <r>   -6.3636    1.0000 </r>
       <r>   -6.3630    1.0000 </r>
       <r>   -6.3629    1.0000 </r>
       <r>   -6.3462    1.0000 </r>
       <r>   -6.3383    1.0000 </r>
       <r>   -6.3335    1.0000 </r>
       <r>   -6.3335    1.0000 </r>
       <r>   -6.3222    1.0000 </r>
       <r>   -6.3220    1.0000 </r>
       <r>   -6.3220    1.0000 </r>
       <r>   -6.3218    1.0000 </r>
       <r>   -6.3137    1.0000 </r>
       <r>   -6.3137    1.0000 </r>
       <r>   -6.2996    1.0000 </r>
       <r>   -6.2996    1.0000 </r>
       <r>   -6.2995    1.0000 </r>
       <r>   -6.2995    1.0000 </r>
       <r>   -6.2987    1.0000 </r>
       <r>   -6.2985    1.0000 </r>
       <r>   -6.2985    1.0000 </r>
       <r>   -6.2983    1.0000 </r>
       <r>   -6.2933    1.0000 </r>
       <r>   -6.2933    1.0000 </r>
       <r>   -6.2932    1.0000 </r>
       <r>   -6.2932    1.0000 </r>
       <r>   -6.2856    1.0000 </r>
       <r>   -6.2827    1.0000 </r>
       <r>   -6.2822    1.0000 </r>
       <r>   -6.2822    1.0000 </r>
       <r>   -6.2819    1.0000 </r>
       <r>   -6.2819    1.0000 </r>
       <r>   -6.2807    1.0000 </r>
       <r>   -6.2807    1.0000 </r>
       <r>   -6.2805    1.0000 </r>
       <r>   -6.2805    1.0000 </r>
       <r>   -6.2789    1.0000 </r>
       <r>   -6.2785    1.0000 </r>
       <r>   -6.2784    1.0000 </r>
       <r>   -6.2784    1.0000 </r>
       <r>   -6.2783    1.0000 </r>
       <r>   -6.2776    1.0000 </r>
       <r>   -6.2775    1.0000 </r>
       <r>   -6.2775    1.0000 </r>
       <r>   -6.2773    1.0000 </r>
       <r>   -6.2761    1.0000 </r>
       <r>   -6.2761    1.0000 </r>
       <r>   -6.2759    1.0000 </r>
       <r>   -6.2759    1.0000 </r>
       <r>   -6.2758    1.0000 </r>
       <r>   -6.2757    1.0000 </r>
       <r>   -6.2757    1.0000 </r>
       <r>   -6.2755    1.0000 </r>
       <r>   -6.2754    1.0000 </r>
       <r>   -6.2754    1.0000 </r>
       <r>   -6.2752    1.0000 </r>
       <r>   -6.2752    1.0000 </r>
       <r>   -6.2747    1.0000 </r>
       <r>   -6.2703    1.0000 </r>
       <r>   -6.2702    1.0000 </r>
       <r>   -6.2702    1.0000 </r>
       <r>   -6.2700    1.0000 </r>
       <r>   -6.2695    1.0000 </r>
       <r>   -6.2695    1.0000 </r>
       <r>   -6.2630    1.0000 </r>
       <r>   -6.2603    1.0000 </r>
       <r>   -6.2603    1.0000 </r>
       <r>   -6.2586    1.0000 </r>
       <r>   -6.2250    1.0000 </r>
       <r>   -6.2249    1.0000 </r>
       <r>   -6.2248    1.0000 </r>
       <r>   -6.2247    1.0000 </r>
       <r>   -6.1536    1.0000 </r>
       <r>   -6.1535    1.0000 </r>
       <r>   -6.1535    1.0000 </r>
       <r>   -6.1533    1.0000 </r>
       <r>   -6.1090    1.0000 </r>
       <r>   -6.0375    1.0000 </r>
       <r>   -6.0374    1.0000 </r>
       <r>   -6.0373    1.0000 </r>
       <r>   -6.0372    1.0000 </r>
       <r>   -6.0138    1.0000 </r>
       <r>   -6.0138    1.0000 </r>
       <r>   -6.0137    1.0000 </r>
       <r>   -6.0136    1.0000 </r>
       <r>   -5.9599    1.0000 </r>
       <r>   -5.9427    1.0000 </r>
       <r>   -5.9426    1.0000 </r>
       <r>   -5.9426    1.0000 </r>
       <r>   -5.9425    1.0000 </r>
       <r>   -5.8789    1.0000 </r>
       <r>   -5.8789    1.0000 </r>
       <r>   -5.8654    1.0000 </r>
       <r>   -5.8654    1.0000 </r>
       <r>   -5.8653    1.0000 </r>
       <r>   -5.8653    1.0000 </r>
       <r>   -5.8511    1.0000 </r>
       <r>   -5.8511    1.0000 </r>
       <r>   -2.3218    1.0000 </r>
       <r>   -2.3217    1.0000 </r>
       <r>   -2.2836    1.0000 </r>
       <r>   -2.2831    1.0000 </r>
       <r>   -2.2829    1.0000 </r>
       <r>   -2.2824    1.0000 </r>
       <r>   -2.2646    1.0000 </r>
       <r>   -2.2646    1.0000 </r>
       <r>   -2.1992    1.0000 </r>
[...]
      </set>
     </set>
    </set>
   </array>
  </eigenvalues>
  <separator name="orbital magnetization" >
   <v name="MAGDIPOLOUT">      0.00000000      0.00000000      0.00000000</v>
  </separator>
  <dos>
   <i name="efermi">      1.76782836 </i>
   <total>
    <array>
     <dimension dim="1">gridpoints</dimension>
     <dimension dim="2">spin</dimension>
     <field>energy</field>
     <field>total</field>
     <field>integrated</field>
     <set>
      <set comment="spin 1">
       <r>    -9.9865     0.0000     0.0000 </r>
       <r>    -9.9253     0.0000     0.0000 </r>
       <r>    -9.8641     0.0000     0.0000 </r>
       <r>    -9.8029     0.0000     0.0000 </r>
       <r>    -9.7417     0.0000     0.0000 </r>
       <r>    -9.6804     0.0000     0.0000 </r>
       <r>    -9.6192     0.0000     0.0000 </r>
       <r>    -9.5580     0.0000     0.0000 </r>
       <r>    -9.4968     0.0000     0.0000 </r>
       <r>    -9.4356     0.0000     0.0000 </r>
       <r>    -9.3744     0.0000     0.0000 </r>
       <r>    -9.3132     0.0000     0.0000 </r>
       <r>    -9.2520     0.0039     0.0002 </r>
       <r>    -9.1908     0.4350     0.0269 </r>
       <r>    -9.1296     6.9102     0.4498 </r>
       <r>    -9.0683    24.1653     1.9290 </r>
       <r>    -9.0071    46.8503     4.7967 </r>
       <r>    -8.9459    71.8600     9.1953 </r>
       <r>    -8.8847   128.1195    17.0376 </r>
       <r>    -8.8235   240.6540    31.7681 </r>
       <r>    -8.7623   337.0154    52.3970 </r>
       <r>    -8.7011   173.8479    63.0383 </r>
       <r>    -8.6399    15.5720    63.9915 </r>
       <r>    -8.5787     0.1388    64.0000 </r>
       <r>    -8.5174     0.0001    64.0000 </r>
       <r>    -8.4562     0.0000    64.0000 </r>
       <r>    -8.3950     0.0000    64.0000 </r>
       <r>    -8.3338     0.0000    64.0000 </r>
       <r>    -8.2726     0.0000    64.0000 </r>
       <r>    -8.2114     0.0000    64.0000 </r>
       <r>    -8.1502     0.0000    64.0000 </r>
       <r>    -8.0890     0.0000    64.0000 </r>
       <r>    -8.0278     0.0000    64.0000 </r>
       <r>    -7.9666     0.0000    64.0000 </r>
       <r>    -7.9053     0.0000    64.0000 </r>
       <r>    -7.8441     0.0000    64.0000 </r>
       <r>    -7.7829     0.0000    64.0000 </r>
       <r>    -7.7217     0.0000    64.0000 </r>
       <r>    -7.6605     0.0000    64.0000 </r>
       <r>    -7.5993     0.0000    64.0000 </r>
       <r>    -7.5381     0.0000    64.0000 </r>
       <r>    -7.4769     0.0000    64.0000 </r>
       <r>    -7.4157     0.0000    64.0000 </r>
       <r>    -7.3544     0.0000    64.0000 </r>
       <r>    -7.2932     0.0000    64.0000 </r>
       <r>    -7.2320     0.0000    64.0000 </r>
       <r>    -7.1708     0.0000    64.0000 </r>
       <r>    -7.1096     0.0000    64.0000 </r>
       <r>    -7.0484     0.0000    64.0000 </r>
       <r>    -6.9872     0.0000    64.0000 </r>
       <r>    -6.9260     0.0000    64.0000 </r>
       <r>    -6.8648     0.0000    64.0000 </r>
       <r>    -6.8036     0.0000    64.0000 </r>
       <r>    -6.7423     0.0000    64.0000 </r>
       <r>    -6.6811     0.0000    64.0000 </r>
       <r>    -6.6199     0.0006    64.0000 </r>
       <r>    -6.5587     0.5095    64.0312 </r>
       <r>    -6.4975    42.3613    66.6242 </r>
       <r>    -6.4363   510.0033    97.8417 </r>
       <r>    -6.3751  1161.4886   168.9370 </r>
       <r>    -6.3139   955.7867   227.4412 </r>
       <r>    -6.2527  1226.4623   302.5136 </r>
       <r>    -6.1914   469.7525   331.2674 </r>
       <r>    -6.1302    91.0373   336.8398 </r>
       <r>    -6.0690    96.1291   342.7239 </r>
       <r>    -6.0078   137.3776   351.1329 </r>
       <r>    -5.9466   176.7014   361.9488 </r>
       <r>    -5.8854   209.5067   374.7728 </r>
       <r>    -5.8242   130.4824   382.7597 </r>
       <r>    -5.7630    19.8416   383.9742 </r>
       <r>    -5.7018     0.4199   383.9999 </r>
       <r>    -5.6406     0.0008   384.0000 </r>
       <r>    -5.5793     0.0000   384.0000 </r>
       <r>    -5.5181     0.0000   384.0000 </r>
       <r>    -5.4569     0.0000   384.0000 </r>
       <r>    -5.3957     0.0000   384.0000 </r>
       <r>    -5.3345     0.0000   384.0000 </r>
       <r>    -5.2733     0.0000   384.0000 </r>
       <r>    -5.2121     0.0000   384.0000 </r>
       <r>    -5.1509     0.0000   384.0000 </r>
       <r>    -5.0897     0.0000   384.0000 </r>
       <r>    -5.0284     0.0000   384.0000 </r>
       <r>    -4.9672     0.0000   384.0000 </r>
       <r>    -4.9060     0.0000   384.0000 </r>
       <r>    -4.8448     0.0000   384.0000 </r>
       <r>    -4.7836     0.0000   384.0000 </r>
       <r>    -4.7224     0.0000   384.0000 </r>
       <r>    -4.6612     0.0000   384.0000 </r>
       <r>    -4.6000     0.0000   384.0000 </r>
       <r>    -4.5388     0.0000   384.0000 </r>
       <r>    -4.4776     0.0000   384.0000 </r>
       <r>    -4.4163     0.0000   384.0000 </r>
       <r>    -4.3551     0.0000   384.0000 </r>
       <r>    -4.2939     0.0000   384.0000 </r>
       <r>    -4.2327     0.0000   384.0000 </r>
       <r>    -4.1715     0.0000   384.0000 </r>
       <r>    -4.1103     0.0000   384.0000 </r>
       <r>    -4.0491     0.0000   384.0000 </r>
       <r>    -3.9879     0.0000   384.0000 </r>
       <r>    -3.9267     0.0000   384.0000 </r>
       <r>    -3.8655     0.0000   384.0000 </r>
       <r>    -3.8042     0.0000   384.0000 </r>
       <r>    -3.7430     0.0000   384.0000 </r>
       <r>    -3.6818     0.0000   384.0000 </r>
       <r>    -3.6206     0.0000   384.0000 </r>
       <r>    -3.5594     0.0000   384.0000 </r>
       <r>    -3.4982     0.0000   384.0000 </r>
       <r>    -3.4370     0.0000   384.0000 </r>
       <r>    -3.3758     0.0000   384.0000 </r>
       <r>    -3.3146     0.0000   384.0000 </r>
       <r>    -3.2533     0.0000   384.0000 </r>
       <r>    -3.1921     0.0000   384.0000 </r>
       <r>    -3.1309     0.0000   384.0000 </r>
       <r>    -3.0697     0.0000   384.0000 </r>
       <r>    -3.0085     0.0000   384.0000 </r>
       <r>    -2.9473     0.0000   384.0000 </r>
       <r>    -2.8861     0.0000   384.0000 </r>
       <r>    -2.8249     0.0000   384.0000 </r>
       <r>    -2.7637     0.0000   384.0000 </r>
       <r>    -2.7025     0.0000   384.0000 </r>
       <r>    -2.6412     0.0000   384.0000 </r>
       <r>    -2.5800     0.0000   384.0000 </r>
       <r>    -2.5188     0.0008   384.0000 </r>
       <r>    -2.4576     0.1554   384.0096 </r>
       <r>    -2.3964     2.9667   384.1912 </r>
       <r>    -2.3352    22.2997   385.5561 </r>
       <r>    -2.2740    72.8615   390.0160 </r>
       <r>    -2.2128   150.3439   399.2186 </r>
       <r>    -2.1516   188.2947   410.7442 </r>
       <r>    -2.0903    65.9699   414.7823 </r>
       <r>    -2.0291    72.1481   419.1985 </r>
       <r>    -1.9679    53.9958   422.5036 </r>
       <r>    -1.9067    19.8322   423.7176 </r>
       <r>    -1.8455    29.3542   425.5143 </r>
       <r>    -1.7843    28.7410   427.2736 </r>
       <r>    -1.7231    41.3588   429.8052 </r>
       <r>    -1.6619    50.9875   432.9262 </r>
       <r>    -1.6007    10.0893   433.5437 </r>
       <r>    -1.5395     4.0531   433.7918 </r>
       <r>    -1.4782    17.3980   434.8568 </r>
       <r>    -1.4170     8.0099   435.3471 </r>
       <r>    -1.3558     9.9813   435.9580 </r>
       <r>    -1.2946    19.6124   437.1585 </r>
       <r>    -1.2334    19.8804   438.3754 </r>
       <r>    -1.1722    15.4047   439.3183 </r>
       <r>    -1.1110    17.8778   440.4126 </r>
       <r>    -1.0498     4.8149   440.7074 </r>
       <r>    -0.9886     9.2428   441.2731 </r>
       <r>    -0.9273    10.6722   441.9264 </r>
       <r>    -0.8661     1.1998   441.9998 </r>
       <r>    -0.8049     1.1701   442.0714 </r>
       <r>    -0.7437    13.7445   442.9127 </r>
       <r>    -0.6825    20.5096   444.1681 </r>
       <r>    -0.6213    19.4059   445.3560 </r>
       <r>    -0.5601    42.3021   447.9453 </r>
       <r>    -0.4989    52.9783   451.1881 </r>
       <r>    -0.4377    90.2975   456.7153 </r>
       <r>    -0.3765    68.4296   460.9039 </r>
       <r>    -0.3152    54.8001   464.2582 </r>
       <r>    -0.2540    80.4442   469.1823 </r>
       <r>    -0.1928    44.9914   471.9362 </r>
       <r>    -0.1316    36.5958   474.1763 </r>
       <r>    -0.0704    75.4924   478.7972 </r>
       <r>    -0.0092    69.0908   483.0263 </r>
       <r>     0.0520    96.0105   488.9031 </r>
       <r>     0.1132   108.1416   495.5225 </r>
       <r>     0.1744    99.9504   501.6405 </r>
       <r>     0.2357    85.1583   506.8531 </r>
       <r>     0.2969    47.7719   509.7773 </r>
       <r>     0.3581    71.3788   514.1464 </r>
       <r>     0.4193    67.6046   518.2845 </r>
       <r>     0.4805   103.4108   524.6143 </r>
       <r>     0.5417   101.4203   530.8223 </r>
       <r>     0.6029    89.1212   536.2775 </r>
       <r>     0.6641    55.0618   539.6478 </r>
       <r>     0.7253    70.8697   543.9858 </r>
       <r>     0.7865    68.2582   548.1639 </r>
       <r>     0.8478    79.9449   553.0574 </r>
       <r>     0.9090   112.1981   559.9251 </r>
       <r>     0.9702    34.9644   562.0653 </r>
       <r>     1.0314    35.3358   564.2282 </r>
       <r>     1.0926    38.1610   566.5641 </r>
       <r>     1.1538    30.6149   568.4380 </r>
       <r>     1.2150    46.8887   571.3081 </r>
       <r>     1.2762    24.1174   572.7843 </r>
       <r>     1.3374    14.9124   573.6971 </r>
       <r>     1.3987    17.3146   574.7570 </r>
       <r>     1.4599    11.5338   575.4630 </r>
       <r>     1.5211     6.9870   575.8906 </r>
       <r>     1.5823     1.6911   575.9942 </r>
       <r>     1.6435     0.0951   576.0000 </r>
       <r>     1.7047     0.0004   576.0000 </r>
       <r>     1.7659     0.0000   576.0000 </r>
       <r>     1.8271     0.0000   576.0000 </r>
       <r>     1.8883     0.0021   576.0001 </r>
       <r>     1.9495     0.1392   576.0086 </r>
       <r>     2.0108     0.7123   576.0523 </r>
       <r>     2.0720     0.3425   576.0732 </r>
       <r>     2.1332     0.0140   576.0741 </r>
       <r>     2.1944     0.0000   576.0741 </r>
       <r>     2.2556     0.0000   576.0741 </r>
       <r>     2.3168     0.0000   576.0741 </r>
       <r>     2.3780     0.0000   576.0741 </r>
       <r>     2.4392     0.0000   576.0741 </r>
       <r>     2.5004     0.0000   576.0741 </r>
       <r>     2.5617     0.0000   576.0741 </r>
       <r>     2.6229     0.0000   576.0741 </r>
       <r>     2.6841     0.0219   576.0754 </r>
       <r>     2.7453     1.1059   576.1431 </r>
       <r>     2.8065     4.4156   576.4134 </r>
       <r>     2.8677     1.6654   576.5153 </r>
       <r>     2.9289     0.0587   576.5189 </r>
       <r>     2.9901     0.8208   576.5692 </r>
       <r>     3.0513     7.4430   577.0248 </r>
       <r>     3.1125     8.9845   577.5747 </r>
       <r>     3.1738     6.3070   577.9608 </r>
       <r>     3.2350     3.6713   578.1855 </r>
       <r>     3.2962     5.1222   578.4990 </r>
       <r>     3.3574     5.5240   578.8371 </r>
       <r>     3.4186     0.8381   578.8884 </r>
       <r>     3.4798     0.6913   578.9307 </r>
       <r>     3.5410    17.7399   580.0166 </r>
       <r>     3.6022    61.2562   583.7661 </r>
       <r>     3.6634    39.6886   586.1955 </r>
       <r>     3.7247    24.3239   587.6844 </r>
       <r>     3.7859     8.4989   588.2046 </r>
       <r>     3.8471     1.1273   588.2736 </r>
       <r>     3.9083     7.6025   588.7389 </r>
       <r>     3.9695    15.4520   589.6848 </r>
       <r>     4.0307    43.9563   592.3754 </r>
       <r>     4.0919    40.9176   594.8799 </r>
       <r>     4.1531    53.2944   598.1421 </r>
       <r>     4.2143    37.1028   600.4132 </r>
       <r>     4.2755    21.5858   601.7345 </r>
       <r>     4.3368    48.0367   604.6748 </r>
       <r>     4.3980    70.5946   608.9960 </r>
       <r>     4.4592   106.5657   615.5189 </r>
       <r>     4.5204   118.1936   622.7536 </r>
       <r>     4.5816    42.4657   625.3529 </r>
       <r>     4.6428    46.6850   628.2106 </r>
       <r>     4.7040    69.4208   632.4598 </r>
       <r>     4.7652    48.7995   635.4469 </r>
       <r>     4.8264    23.2257   636.8685 </r>
       <r>     4.8877     7.0538   637.3003 </r>
       <r>     4.9489    34.6612   639.4219 </r>
       <r>     5.0101    52.2933   642.6228 </r>
       <r>     5.0713    18.1391   643.7331 </r>
       <r>     5.1325    15.3872   644.6750 </r>
       <r>     5.1937    44.1167   647.3754 </r>
       <r>     5.2549    37.2204   649.6537 </r>
       <r>     5.3161    13.2456   650.4644 </r>
       <r>     5.3773    29.2800   652.2567 </r>
       <r>     5.4385    23.0494   653.6676 </r>
       <r>     5.4998    21.1017   654.9592 </r>
       <r>     5.5610    17.4036   656.0245 </r>
       <r>     5.6222    30.9941   657.9216 </r>
       <r>     5.6834    23.6059   659.3666 </r>
       <r>     5.7446    17.9996   660.4683 </r>
       <r>     5.8058     3.4746   660.6810 </r>
       <r>     5.8670     9.5459   661.2653 </r>
       <r>     5.9282    66.6931   665.3477 </r>
       <r>     5.9894   100.3588   671.4907 </r>
       <r>     6.0507    44.4344   674.2105 </r>
       <r>     6.1119     4.9539   674.5137 </r>
       <r>     6.1731    23.6791   675.9632 </r>
       <r>     6.2343    84.0020   681.1050 </r>
       <r>     6.2955    94.3327   686.8791 </r>
       <r>     6.3567    87.0303   692.2063 </r>
       <r>     6.4179    38.5465   694.5657 </r>
       <r>     6.4791    46.0722   697.3858 </r>
       <r>     6.5403    70.5394   701.7036 </r>
       <r>     6.6015    55.2228   705.0838 </r>
       <r>     6.6628    38.2333   707.4241 </r>
       <r>     6.7240    43.8972   710.1111 </r>
       <r>     6.7852    26.9279   711.7593 </r>
       <r>     6.8464    69.6664   716.0236 </r>
       <r>     6.9076   122.2058   723.5039 </r>
       <r>     6.9688    73.1093   727.9790 </r>
       <r>     7.0300    79.2698   732.8311 </r>
       <r>     7.0912    95.3290   738.6663 </r>
       <r>     7.1524    99.6648   744.7668 </r>
       <r>     7.2136    45.3747   747.5442 </r>
       <r>     7.2749    63.1853   751.4118 </r>
       <r>     7.3361    65.9555   755.4490 </r>
       <r>     7.3973    54.1542   758.7638 </r>
       <r>     7.4585    57.9398   762.3103 </r>
       <r>     7.5197    63.9369   766.2239 </r>
       <r>     7.5809    26.9563   767.8739 </r>
       <r>     7.6421     2.0357   767.9985 </r>
       <r>     7.7033     0.0241   768.0000 </r>
       <r>     7.7645     0.0000   768.0000 </r>
       <r>     7.8258     0.0000   768.0000 </r>
       <r>     7.8870     0.0000   768.0000 </r>
       <r>     7.9482     0.0000   768.0000 </r>
       <r>     8.0094     0.0000   768.0000 </r>
       <r>     8.0706     0.0000   768.0000 </r>
       <r>     8.1318     0.0000   768.0000 </r>
       <r>     8.1930     0.0000   768.0000 </r>
       <r>     8.2542     0.0000   768.0000 </r>
       <r>     8.3154     0.0000   768.0000 </r>
       <r>     8.3766     0.0000   768.0000 </r>
      </set>
     </set>
    </array>
   </total>
  </dos>
 </calculation>
 <structure name="finalpos" >
  <crystal>
   <varray name="basis" >
    <v>      13.39071620       0.00000000       0.00000000 </v>
    <v>       0.00000000      13.39071620       0.00000000 </v>
    <v>       0.00000000       0.00000000      13.39071620 </v>
   </varray>
   <i name="volume">   2401.10646453 </i>
   <varray name="rec_basis" >
    <v>       0.07467860       0.00000000       0.00000000 </v>
    <v>       0.00000000       0.07467860       0.00000000 </v>
    <v>       0.00000000       0.00000000       0.07467860 </v>
   </varray>
  </crystal>
  <varray name="positions" >
   <v>       0.00000000       0.00000000       0.00000000 </v>
   <v>       0.50000000       0.00000000       0.00000000 </v>
   <v>       0.00000000       0.50000000       0.00000000 </v>
   <v>       0.50000000       0.50000000       0.00000000 </v>
   <v>       0.00000000       0.00000000       0.50000000 </v>
   <v>       0.50000000       0.00000000       0.50000000 </v>
   <v>       0.00000000       0.50000000       0.50000000 </v>
   <v>       0.50000000       0.50000000       0.50000000 </v>
   <v>       0.00000000       0.25000000       0.25000000 </v>
   <v>       0.50000000       0.25000000       0.25000000 </v>
   <v>       0.00000000       0.75000000       0.25000000 </v>
   <v>       0.50000000       0.75000000       0.25000000 </v>
   <v>       0.00000000       0.25000000       0.75000000 </v>
   <v>       0.50000000       0.25000000       0.75000000 </v>
   <v>       0.00000000       0.75000000       0.75000000 </v>
   <v>       0.50000000       0.75000000       0.75000000 </v>
   <v>       0.25000000       0.00000000       0.25000000 </v>
   <v>       0.75000000       0.00000000       0.25000000 </v>
   <v>       0.25000000       0.50000000       0.25000000 </v>
   <v>       0.75000000       0.50000000       0.25000000 </v>
   <v>       0.25000000       0.00000000       0.75000000 </v>
   <v>       0.75000000       0.00000000       0.75000000 </v>
   <v>       0.25000000       0.50000000       0.75000000 </v>
   <v>       0.75000000       0.50000000       0.75000000 </v>
   <v>       0.25000000       0.25000000       0.00000000 </v>
   <v>       0.75000000       0.25000000       0.00000000 </v>
   <v>       0.25000000       0.75000000       0.00000000 </v>
   <v>       0.75000000       0.75000000       0.00000000 </v>
   <v>       0.25000000       0.25000000       0.50000000 </v>
   <v>       0.75000000       0.25000000       0.50000000 </v>
   <v>       0.25000000       0.75000000       0.50000000 </v>
   <v>       0.75000000       0.75000000       0.50000000 </v>
   <v>       0.12574679       0.12500000       0.12500000 </v>
   <v>       0.62500000       0.12500000       0.12500000 </v>
   <v>       0.12500000       0.62500000       0.12500000 </v>
   <v>       0.62500000       0.62500000       0.12500000 </v>
   <v>       0.12500000       0.12500000       0.62500000 </v>
   <v>       0.62500000       0.12500000       0.62500000 </v>
   <v>       0.12500000       0.62500000       0.62500000 </v>
   <v>       0.62500000       0.62500000       0.62500000 </v>
   <v>       0.12500000       0.37500000       0.37500000 </v>
   <v>       0.62500000       0.37500000       0.37500000 </v>
   <v>       0.12500000       0.87500000       0.37500000 </v>
   <v>       0.62500000       0.87500000       0.37500000 </v>
   <v>       0.12500000       0.37500000       0.87500000 </v>
   <v>       0.62500000       0.37500000       0.87500000 </v>
   <v>       0.12500000       0.87500000       0.87500000 </v>
   <v>       0.62500000       0.87500000       0.87500000 </v>
   <v>       0.37500000       0.12500000       0.37500000 </v>
   <v>       0.87500000       0.12500000       0.37500000 </v>
   <v>       0.37500000       0.62500000       0.37500000 </v>
   <v>       0.87500000       0.62500000       0.37500000 </v>
   <v>       0.37500000       0.12500000       0.87500000 </v>
   <v>       0.87500000       0.12500000       0.87500000 </v>
   <v>       0.37500000       0.62500000       0.87500000 </v>
   <v>       0.87500000       0.62500000       0.87500000 </v>
   <v>       0.37500000       0.37500000       0.12500000 </v>
   <v>       0.87500000       0.37500000       0.12500000 </v>
   <v>       0.37500000       0.87500000       0.12500000 </v>
   <v>       0.87500000       0.87500000       0.12500000 </v>
   <v>       0.37500000       0.37500000       0.62500000 </v>
   <v>       0.87500000       0.37500000       0.62500000 </v>
   <v>       0.37500000       0.87500000       0.62500000 </v>
   <v>       0.87500000       0.87500000       0.62500000 </v>
  </varray>
 </structure>
</modeling>
